V -t * -v 1.0a5 -a 0
A -t * -n 1 -p 0 -o 0x7fffffff -c 30 -a 1
A -t * -h 1 -m 1073741823 -s 0
c -t * -i 0 -n green
c -t * -i 1 -n yellow
c -t * -i 2 -n blue
c -t * -i 3 -n red
n -t * -a 4 -s 4 -S UP -v circle -c black -i black
n -t * -a 0 -s 0 -S UP -v circle -c black -i black
n -t * -a 1 -s 1 -S UP -v circle -c black -i black
n -t * -a 2 -s 2 -S UP -v circle -c black -i black
n -t * -a 3 -s 3 -S UP -v circle -c black -i black
l -t * -s 0 -d 3 -S UP -r 8000000 -D 0.0001 -c black -o right-down
l -t * -s 2 -d 3 -S UP -r 8000000 -D 0.0001 -c black -o right-up
l -t * -s 3 -d 1 -S UP -r 8000000 -D 0.0001 -c black -o left
l -t * -s 3 -d 4 -S UP -r 800000 -D 0.10000000000000001 -c black -o right
q -t * -s 4 -d 3 -a 0.5
q -t * -s 3 -d 4 -a 0.5
+ -t 1 -s 0 -d 3 -p tcp -e 40 -c 2 -i 0 -a 2 -x {0.0 4.0 0 ------- null}
- -t 1 -s 0 -d 3 -p tcp -e 40 -c 2 -i 0 -a 2 -x {0.0 4.0 0 ------- null}
h -t 1 -s 0 -d 3 -p tcp -e 40 -c 2 -i 0 -a 2 -x {0.0 4.0 -1 ------- null}
r -t 1.00014 -s 0 -d 3 -p tcp -e 40 -c 2 -i 0 -a 2 -x {0.0 4.0 0 ------- null}
+ -t 1.00014 -s 3 -d 4 -p tcp -e 40 -c 2 -i 0 -a 2 -x {0.0 4.0 0 ------- null}
- -t 1.00014 -s 3 -d 4 -p tcp -e 40 -c 2 -i 0 -a 2 -x {0.0 4.0 0 ------- null}
h -t 1.00014 -s 3 -d 4 -p tcp -e 40 -c 2 -i 0 -a 2 -x {0.0 4.0 -1 ------- null}
r -t 1.10054 -s 3 -d 4 -p tcp -e 40 -c 2 -i 0 -a 2 -x {0.0 4.0 0 ------- null}
+ -t 1.10054 -s 4 -d 3 -p ack -e 40 -c 2 -i 1 -a 2 -x {4.0 0.0 0 ------- null}
- -t 1.10054 -s 4 -d 3 -p ack -e 40 -c 2 -i 1 -a 2 -x {4.0 0.0 0 ------- null}
h -t 1.10054 -s 4 -d 3 -p ack -e 40 -c 2 -i 1 -a 2 -x {4.0 0.0 -1 ------- null}
+ -t 1.2 -s 1 -d 3 -p tcp -e 40 -c 3 -i 2 -a 3 -x {1.0 4.1 0 ------- null}
- -t 1.2 -s 1 -d 3 -p tcp -e 40 -c 3 -i 2 -a 3 -x {1.0 4.1 0 ------- null}
h -t 1.2 -s 1 -d 3 -p tcp -e 40 -c 3 -i 2 -a 3 -x {1.0 4.1 -1 ------- null}
+ -t 1.2 -s 2 -d 3 -p tcp -e 40 -c 1 -i 3 -a 1 -x {2.0 4.2 0 ------- null}
- -t 1.2 -s 2 -d 3 -p tcp -e 40 -c 1 -i 3 -a 1 -x {2.0 4.2 0 ------- null}
h -t 1.2 -s 2 -d 3 -p tcp -e 40 -c 1 -i 3 -a 1 -x {2.0 4.2 -1 ------- null}
r -t 1.20014 -s 1 -d 3 -p tcp -e 40 -c 3 -i 2 -a 3 -x {1.0 4.1 0 ------- null}
+ -t 1.20014 -s 3 -d 4 -p tcp -e 40 -c 3 -i 2 -a 3 -x {1.0 4.1 0 ------- null}
- -t 1.20014 -s 3 -d 4 -p tcp -e 40 -c 3 -i 2 -a 3 -x {1.0 4.1 0 ------- null}
h -t 1.20014 -s 3 -d 4 -p tcp -e 40 -c 3 -i 2 -a 3 -x {1.0 4.1 -1 ------- null}
r -t 1.20014 -s 2 -d 3 -p tcp -e 40 -c 1 -i 3 -a 1 -x {2.0 4.2 0 ------- null}
+ -t 1.20014 -s 3 -d 4 -p tcp -e 40 -c 1 -i 3 -a 1 -x {2.0 4.2 0 ------- null}
- -t 1.20054 -s 3 -d 4 -p tcp -e 40 -c 1 -i 3 -a 1 -x {2.0 4.2 0 ------- null}
h -t 1.20054 -s 3 -d 4 -p tcp -e 40 -c 1 -i 3 -a 1 -x {2.0 4.2 -1 ------- null}
r -t 1.20094 -s 4 -d 3 -p ack -e 40 -c 2 -i 1 -a 2 -x {4.0 0.0 0 ------- null}
+ -t 1.20094 -s 3 -d 0 -p ack -e 40 -c 2 -i 1 -a 2 -x {4.0 0.0 0 ------- null}
- -t 1.20094 -s 3 -d 0 -p ack -e 40 -c 2 -i 1 -a 2 -x {4.0 0.0 0 ------- null}
h -t 1.20094 -s 3 -d 0 -p ack -e 40 -c 2 -i 1 -a 2 -x {4.0 0.0 -1 ------- null}
r -t 1.20108 -s 3 -d 0 -p ack -e 40 -c 2 -i 1 -a 2 -x {4.0 0.0 0 ------- null}
+ -t 1.20108 -s 0 -d 3 -p tcp -e 1040 -c 2 -i 4 -a 2 -x {0.0 4.0 1 ------- null}
- -t 1.20108 -s 0 -d 3 -p tcp -e 1040 -c 2 -i 4 -a 2 -x {0.0 4.0 1 ------- null}
h -t 1.20108 -s 0 -d 3 -p tcp -e 1040 -c 2 -i 4 -a 2 -x {0.0 4.0 -1 ------- null}
+ -t 1.20108 -s 0 -d 3 -p tcp -e 1040 -c 2 -i 5 -a 2 -x {0.0 4.0 2 ------- null}
- -t 1.20212 -s 0 -d 3 -p tcp -e 1040 -c 2 -i 5 -a 2 -x {0.0 4.0 2 ------- null}
h -t 1.20212 -s 0 -d 3 -p tcp -e 1040 -c 2 -i 5 -a 2 -x {0.0 4.0 -1 ------- null}
r -t 1.20222 -s 0 -d 3 -p tcp -e 1040 -c 2 -i 4 -a 2 -x {0.0 4.0 1 ------- null}
+ -t 1.20222 -s 3 -d 4 -p tcp -e 1040 -c 2 -i 4 -a 2 -x {0.0 4.0 1 ------- null}
- -t 1.20222 -s 3 -d 4 -p tcp -e 1040 -c 2 -i 4 -a 2 -x {0.0 4.0 1 ------- null}
h -t 1.20222 -s 3 -d 4 -p tcp -e 1040 -c 2 -i 4 -a 2 -x {0.0 4.0 -1 ------- null}
r -t 1.20326 -s 0 -d 3 -p tcp -e 1040 -c 2 -i 5 -a 2 -x {0.0 4.0 2 ------- null}
+ -t 1.20326 -s 3 -d 4 -p tcp -e 1040 -c 2 -i 5 -a 2 -x {0.0 4.0 2 ------- null}
- -t 1.21262 -s 3 -d 4 -p tcp -e 1040 -c 2 -i 5 -a 2 -x {0.0 4.0 2 ------- null}
h -t 1.21262 -s 3 -d 4 -p tcp -e 1040 -c 2 -i 5 -a 2 -x {0.0 4.0 -1 ------- null}
r -t 1.30054 -s 3 -d 4 -p tcp -e 40 -c 3 -i 2 -a 3 -x {1.0 4.1 0 ------- null}
+ -t 1.30054 -s 4 -d 3 -p ack -e 40 -c 3 -i 6 -a 3 -x {4.1 1.0 0 ------- null}
- -t 1.30054 -s 4 -d 3 -p ack -e 40 -c 3 -i 6 -a 3 -x {4.1 1.0 0 ------- null}
h -t 1.30054 -s 4 -d 3 -p ack -e 40 -c 3 -i 6 -a 3 -x {4.1 1.0 -1 ------- null}
r -t 1.30094 -s 3 -d 4 -p tcp -e 40 -c 1 -i 3 -a 1 -x {2.0 4.2 0 ------- null}
+ -t 1.30094 -s 4 -d 3 -p ack -e 40 -c 1 -i 7 -a 1 -x {4.2 2.0 0 ------- null}
- -t 1.30094 -s 4 -d 3 -p ack -e 40 -c 1 -i 7 -a 1 -x {4.2 2.0 0 ------- null}
h -t 1.30094 -s 4 -d 3 -p ack -e 40 -c 1 -i 7 -a 1 -x {4.2 2.0 -1 ------- null}
r -t 1.31262 -s 3 -d 4 -p tcp -e 1040 -c 2 -i 4 -a 2 -x {0.0 4.0 1 ------- null}
+ -t 1.31262 -s 4 -d 3 -p ack -e 40 -c 2 -i 8 -a 2 -x {4.0 0.0 1 ------- null}
- -t 1.31262 -s 4 -d 3 -p ack -e 40 -c 2 -i 8 -a 2 -x {4.0 0.0 1 ------- null}
h -t 1.31262 -s 4 -d 3 -p ack -e 40 -c 2 -i 8 -a 2 -x {4.0 0.0 -1 ------- null}
r -t 1.32302 -s 3 -d 4 -p tcp -e 1040 -c 2 -i 5 -a 2 -x {0.0 4.0 2 ------- null}
+ -t 1.32302 -s 4 -d 3 -p ack -e 40 -c 2 -i 9 -a 2 -x {4.0 0.0 2 ------- null}
- -t 1.32302 -s 4 -d 3 -p ack -e 40 -c 2 -i 9 -a 2 -x {4.0 0.0 2 ------- null}
h -t 1.32302 -s 4 -d 3 -p ack -e 40 -c 2 -i 9 -a 2 -x {4.0 0.0 -1 ------- null}
r -t 1.40094 -s 4 -d 3 -p ack -e 40 -c 3 -i 6 -a 3 -x {4.1 1.0 0 ------- null}
+ -t 1.40094 -s 3 -d 1 -p ack -e 40 -c 3 -i 6 -a 3 -x {4.1 1.0 0 ------- null}
- -t 1.40094 -s 3 -d 1 -p ack -e 40 -c 3 -i 6 -a 3 -x {4.1 1.0 0 ------- null}
h -t 1.40094 -s 3 -d 1 -p ack -e 40 -c 3 -i 6 -a 3 -x {4.1 1.0 -1 ------- null}
r -t 1.40108 -s 3 -d 1 -p ack -e 40 -c 3 -i 6 -a 3 -x {4.1 1.0 0 ------- null}
+ -t 1.40108 -s 1 -d 3 -p tcp -e 1040 -c 3 -i 10 -a 3 -x {1.0 4.1 1 ------- null}
- -t 1.40108 -s 1 -d 3 -p tcp -e 1040 -c 3 -i 10 -a 3 -x {1.0 4.1 1 ------- null}
h -t 1.40108 -s 1 -d 3 -p tcp -e 1040 -c 3 -i 10 -a 3 -x {1.0 4.1 -1 ------- null}
+ -t 1.40108 -s 1 -d 3 -p tcp -e 1040 -c 3 -i 11 -a 3 -x {1.0 4.1 2 ------- null}
r -t 1.40134 -s 4 -d 3 -p ack -e 40 -c 1 -i 7 -a 1 -x {4.2 2.0 0 ------- null}
+ -t 1.40134 -s 3 -d 2 -p ack -e 40 -c 1 -i 7 -a 1 -x {4.2 2.0 0 ------- null}
- -t 1.40134 -s 3 -d 2 -p ack -e 40 -c 1 -i 7 -a 1 -x {4.2 2.0 0 ------- null}
h -t 1.40134 -s 3 -d 2 -p ack -e 40 -c 1 -i 7 -a 1 -x {4.2 2.0 -1 ------- null}
r -t 1.40148 -s 3 -d 2 -p ack -e 40 -c 1 -i 7 -a 1 -x {4.2 2.0 0 ------- null}
+ -t 1.40148 -s 2 -d 3 -p tcp -e 1040 -c 1 -i 12 -a 1 -x {2.0 4.2 1 ------- null}
- -t 1.40148 -s 2 -d 3 -p tcp -e 1040 -c 1 -i 12 -a 1 -x {2.0 4.2 1 ------- null}
h -t 1.40148 -s 2 -d 3 -p tcp -e 1040 -c 1 -i 12 -a 1 -x {2.0 4.2 -1 ------- null}
+ -t 1.40148 -s 2 -d 3 -p tcp -e 1040 -c 1 -i 13 -a 1 -x {2.0 4.2 2 ------- null}
- -t 1.40212 -s 1 -d 3 -p tcp -e 1040 -c 3 -i 11 -a 3 -x {1.0 4.1 2 ------- null}
h -t 1.40212 -s 1 -d 3 -p tcp -e 1040 -c 3 -i 11 -a 3 -x {1.0 4.1 -1 ------- null}
r -t 1.40222 -s 1 -d 3 -p tcp -e 1040 -c 3 -i 10 -a 3 -x {1.0 4.1 1 ------- null}
+ -t 1.40222 -s 3 -d 4 -p tcp -e 1040 -c 3 -i 10 -a 3 -x {1.0 4.1 1 ------- null}
- -t 1.40222 -s 3 -d 4 -p tcp -e 1040 -c 3 -i 10 -a 3 -x {1.0 4.1 1 ------- null}
h -t 1.40222 -s 3 -d 4 -p tcp -e 1040 -c 3 -i 10 -a 3 -x {1.0 4.1 -1 ------- null}
- -t 1.40252 -s 2 -d 3 -p tcp -e 1040 -c 1 -i 13 -a 1 -x {2.0 4.2 2 ------- null}
h -t 1.40252 -s 2 -d 3 -p tcp -e 1040 -c 1 -i 13 -a 1 -x {2.0 4.2 -1 ------- null}
r -t 1.40262 -s 2 -d 3 -p tcp -e 1040 -c 1 -i 12 -a 1 -x {2.0 4.2 1 ------- null}
+ -t 1.40262 -s 3 -d 4 -p tcp -e 1040 -c 1 -i 12 -a 1 -x {2.0 4.2 1 ------- null}
r -t 1.40326 -s 1 -d 3 -p tcp -e 1040 -c 3 -i 11 -a 3 -x {1.0 4.1 2 ------- null}
+ -t 1.40326 -s 3 -d 4 -p tcp -e 1040 -c 3 -i 11 -a 3 -x {1.0 4.1 2 ------- null}
r -t 1.40366 -s 2 -d 3 -p tcp -e 1040 -c 1 -i 13 -a 1 -x {2.0 4.2 2 ------- null}
+ -t 1.40366 -s 3 -d 4 -p tcp -e 1040 -c 1 -i 13 -a 1 -x {2.0 4.2 2 ------- null}
- -t 1.41262 -s 3 -d 4 -p tcp -e 1040 -c 1 -i 12 -a 1 -x {2.0 4.2 1 ------- null}
h -t 1.41262 -s 3 -d 4 -p tcp -e 1040 -c 1 -i 12 -a 1 -x {2.0 4.2 -1 ------- null}
r -t 1.41302 -s 4 -d 3 -p ack -e 40 -c 2 -i 8 -a 2 -x {4.0 0.0 1 ------- null}
+ -t 1.41302 -s 3 -d 0 -p ack -e 40 -c 2 -i 8 -a 2 -x {4.0 0.0 1 ------- null}
- -t 1.41302 -s 3 -d 0 -p ack -e 40 -c 2 -i 8 -a 2 -x {4.0 0.0 1 ------- null}
h -t 1.41302 -s 3 -d 0 -p ack -e 40 -c 2 -i 8 -a 2 -x {4.0 0.0 -1 ------- null}
r -t 1.41316 -s 3 -d 0 -p ack -e 40 -c 2 -i 8 -a 2 -x {4.0 0.0 1 ------- null}
+ -t 1.41316 -s 0 -d 3 -p tcp -e 1040 -c 2 -i 14 -a 2 -x {0.0 4.0 3 ------- null}
- -t 1.41316 -s 0 -d 3 -p tcp -e 1040 -c 2 -i 14 -a 2 -x {0.0 4.0 3 ------- null}
h -t 1.41316 -s 0 -d 3 -p tcp -e 1040 -c 2 -i 14 -a 2 -x {0.0 4.0 -1 ------- null}
+ -t 1.41316 -s 0 -d 3 -p tcp -e 1040 -c 2 -i 15 -a 2 -x {0.0 4.0 4 ------- null}
- -t 1.4142 -s 0 -d 3 -p tcp -e 1040 -c 2 -i 15 -a 2 -x {0.0 4.0 4 ------- null}
h -t 1.4142 -s 0 -d 3 -p tcp -e 1040 -c 2 -i 15 -a 2 -x {0.0 4.0 -1 ------- null}
r -t 1.4143 -s 0 -d 3 -p tcp -e 1040 -c 2 -i 14 -a 2 -x {0.0 4.0 3 ------- null}
+ -t 1.4143 -s 3 -d 4 -p tcp -e 1040 -c 2 -i 14 -a 2 -x {0.0 4.0 3 ------- null}
r -t 1.41534 -s 0 -d 3 -p tcp -e 1040 -c 2 -i 15 -a 2 -x {0.0 4.0 4 ------- null}
+ -t 1.41534 -s 3 -d 4 -p tcp -e 1040 -c 2 -i 15 -a 2 -x {0.0 4.0 4 ------- null}
- -t 1.42302 -s 3 -d 4 -p tcp -e 1040 -c 3 -i 11 -a 3 -x {1.0 4.1 2 ------- null}
h -t 1.42302 -s 3 -d 4 -p tcp -e 1040 -c 3 -i 11 -a 3 -x {1.0 4.1 -1 ------- null}
r -t 1.42342 -s 4 -d 3 -p ack -e 40 -c 2 -i 9 -a 2 -x {4.0 0.0 2 ------- null}
+ -t 1.42342 -s 3 -d 0 -p ack -e 40 -c 2 -i 9 -a 2 -x {4.0 0.0 2 ------- null}
- -t 1.42342 -s 3 -d 0 -p ack -e 40 -c 2 -i 9 -a 2 -x {4.0 0.0 2 ------- null}
h -t 1.42342 -s 3 -d 0 -p ack -e 40 -c 2 -i 9 -a 2 -x {4.0 0.0 -1 ------- null}
r -t 1.42356 -s 3 -d 0 -p ack -e 40 -c 2 -i 9 -a 2 -x {4.0 0.0 2 ------- null}
+ -t 1.42356 -s 0 -d 3 -p tcp -e 1040 -c 2 -i 16 -a 2 -x {0.0 4.0 5 ------- null}
- -t 1.42356 -s 0 -d 3 -p tcp -e 1040 -c 2 -i 16 -a 2 -x {0.0 4.0 5 ------- null}
h -t 1.42356 -s 0 -d 3 -p tcp -e 1040 -c 2 -i 16 -a 2 -x {0.0 4.0 -1 ------- null}
+ -t 1.42356 -s 0 -d 3 -p tcp -e 1040 -c 2 -i 17 -a 2 -x {0.0 4.0 6 ------- null}
- -t 1.4246 -s 0 -d 3 -p tcp -e 1040 -c 2 -i 17 -a 2 -x {0.0 4.0 6 ------- null}
h -t 1.4246 -s 0 -d 3 -p tcp -e 1040 -c 2 -i 17 -a 2 -x {0.0 4.0 -1 ------- null}
r -t 1.4247 -s 0 -d 3 -p tcp -e 1040 -c 2 -i 16 -a 2 -x {0.0 4.0 5 ------- null}
+ -t 1.4247 -s 3 -d 4 -p tcp -e 1040 -c 2 -i 16 -a 2 -x {0.0 4.0 5 ------- null}
r -t 1.42574 -s 0 -d 3 -p tcp -e 1040 -c 2 -i 17 -a 2 -x {0.0 4.0 6 ------- null}
+ -t 1.42574 -s 3 -d 4 -p tcp -e 1040 -c 2 -i 17 -a 2 -x {0.0 4.0 6 ------- null}
- -t 1.43342 -s 3 -d 4 -p tcp -e 1040 -c 1 -i 13 -a 1 -x {2.0 4.2 2 ------- null}
h -t 1.43342 -s 3 -d 4 -p tcp -e 1040 -c 1 -i 13 -a 1 -x {2.0 4.2 -1 ------- null}
- -t 1.44382 -s 3 -d 4 -p tcp -e 1040 -c 2 -i 14 -a 2 -x {0.0 4.0 3 ------- null}
h -t 1.44382 -s 3 -d 4 -p tcp -e 1040 -c 2 -i 14 -a 2 -x {0.0 4.0 -1 ------- null}
- -t 1.45422 -s 3 -d 4 -p tcp -e 1040 -c 2 -i 15 -a 2 -x {0.0 4.0 4 ------- null}
h -t 1.45422 -s 3 -d 4 -p tcp -e 1040 -c 2 -i 15 -a 2 -x {0.0 4.0 -1 ------- null}
- -t 1.46462 -s 3 -d 4 -p tcp -e 1040 -c 2 -i 16 -a 2 -x {0.0 4.0 5 ------- null}
h -t 1.46462 -s 3 -d 4 -p tcp -e 1040 -c 2 -i 16 -a 2 -x {0.0 4.0 -1 ------- null}
- -t 1.47502 -s 3 -d 4 -p tcp -e 1040 -c 2 -i 17 -a 2 -x {0.0 4.0 6 ------- null}
h -t 1.47502 -s 3 -d 4 -p tcp -e 1040 -c 2 -i 17 -a 2 -x {0.0 4.0 -1 ------- null}
r -t 1.51262 -s 3 -d 4 -p tcp -e 1040 -c 3 -i 10 -a 3 -x {1.0 4.1 1 ------- null}
+ -t 1.51262 -s 4 -d 3 -p ack -e 40 -c 3 -i 18 -a 3 -x {4.1 1.0 1 ------- null}
- -t 1.51262 -s 4 -d 3 -p ack -e 40 -c 3 -i 18 -a 3 -x {4.1 1.0 1 ------- null}
h -t 1.51262 -s 4 -d 3 -p ack -e 40 -c 3 -i 18 -a 3 -x {4.1 1.0 -1 ------- null}
r -t 1.52302 -s 3 -d 4 -p tcp -e 1040 -c 1 -i 12 -a 1 -x {2.0 4.2 1 ------- null}
+ -t 1.52302 -s 4 -d 3 -p ack -e 40 -c 1 -i 19 -a 1 -x {4.2 2.0 1 ------- null}
- -t 1.52302 -s 4 -d 3 -p ack -e 40 -c 1 -i 19 -a 1 -x {4.2 2.0 1 ------- null}
h -t 1.52302 -s 4 -d 3 -p ack -e 40 -c 1 -i 19 -a 1 -x {4.2 2.0 -1 ------- null}
r -t 1.53342 -s 3 -d 4 -p tcp -e 1040 -c 3 -i 11 -a 3 -x {1.0 4.1 2 ------- null}
+ -t 1.53342 -s 4 -d 3 -p ack -e 40 -c 3 -i 20 -a 3 -x {4.1 1.0 2 ------- null}
- -t 1.53342 -s 4 -d 3 -p ack -e 40 -c 3 -i 20 -a 3 -x {4.1 1.0 2 ------- null}
h -t 1.53342 -s 4 -d 3 -p ack -e 40 -c 3 -i 20 -a 3 -x {4.1 1.0 -1 ------- null}
r -t 1.54382 -s 3 -d 4 -p tcp -e 1040 -c 1 -i 13 -a 1 -x {2.0 4.2 2 ------- null}
+ -t 1.54382 -s 4 -d 3 -p ack -e 40 -c 1 -i 21 -a 1 -x {4.2 2.0 2 ------- null}
- -t 1.54382 -s 4 -d 3 -p ack -e 40 -c 1 -i 21 -a 1 -x {4.2 2.0 2 ------- null}
h -t 1.54382 -s 4 -d 3 -p ack -e 40 -c 1 -i 21 -a 1 -x {4.2 2.0 -1 ------- null}
r -t 1.55422 -s 3 -d 4 -p tcp -e 1040 -c 2 -i 14 -a 2 -x {0.0 4.0 3 ------- null}
+ -t 1.55422 -s 4 -d 3 -p ack -e 40 -c 2 -i 22 -a 2 -x {4.0 0.0 3 ------- null}
- -t 1.55422 -s 4 -d 3 -p ack -e 40 -c 2 -i 22 -a 2 -x {4.0 0.0 3 ------- null}
h -t 1.55422 -s 4 -d 3 -p ack -e 40 -c 2 -i 22 -a 2 -x {4.0 0.0 -1 ------- null}
r -t 1.56462 -s 3 -d 4 -p tcp -e 1040 -c 2 -i 15 -a 2 -x {0.0 4.0 4 ------- null}
+ -t 1.56462 -s 4 -d 3 -p ack -e 40 -c 2 -i 23 -a 2 -x {4.0 0.0 4 ------- null}
- -t 1.56462 -s 4 -d 3 -p ack -e 40 -c 2 -i 23 -a 2 -x {4.0 0.0 4 ------- null}
h -t 1.56462 -s 4 -d 3 -p ack -e 40 -c 2 -i 23 -a 2 -x {4.0 0.0 -1 ------- null}
r -t 1.57502 -s 3 -d 4 -p tcp -e 1040 -c 2 -i 16 -a 2 -x {0.0 4.0 5 ------- null}
+ -t 1.57502 -s 4 -d 3 -p ack -e 40 -c 2 -i 24 -a 2 -x {4.0 0.0 5 ------- null}
- -t 1.57502 -s 4 -d 3 -p ack -e 40 -c 2 -i 24 -a 2 -x {4.0 0.0 5 ------- null}
h -t 1.57502 -s 4 -d 3 -p ack -e 40 -c 2 -i 24 -a 2 -x {4.0 0.0 -1 ------- null}
r -t 1.58542 -s 3 -d 4 -p tcp -e 1040 -c 2 -i 17 -a 2 -x {0.0 4.0 6 ------- null}
+ -t 1.58542 -s 4 -d 3 -p ack -e 40 -c 2 -i 25 -a 2 -x {4.0 0.0 6 ------- null}
- -t 1.58542 -s 4 -d 3 -p ack -e 40 -c 2 -i 25 -a 2 -x {4.0 0.0 6 ------- null}
h -t 1.58542 -s 4 -d 3 -p ack -e 40 -c 2 -i 25 -a 2 -x {4.0 0.0 -1 ------- null}
r -t 1.61302 -s 4 -d 3 -p ack -e 40 -c 3 -i 18 -a 3 -x {4.1 1.0 1 ------- null}
+ -t 1.61302 -s 3 -d 1 -p ack -e 40 -c 3 -i 18 -a 3 -x {4.1 1.0 1 ------- null}
- -t 1.61302 -s 3 -d 1 -p ack -e 40 -c 3 -i 18 -a 3 -x {4.1 1.0 1 ------- null}
h -t 1.61302 -s 3 -d 1 -p ack -e 40 -c 3 -i 18 -a 3 -x {4.1 1.0 -1 ------- null}
r -t 1.61316 -s 3 -d 1 -p ack -e 40 -c 3 -i 18 -a 3 -x {4.1 1.0 1 ------- null}
+ -t 1.61316 -s 1 -d 3 -p tcp -e 1040 -c 3 -i 26 -a 3 -x {1.0 4.1 3 ------- null}
- -t 1.61316 -s 1 -d 3 -p tcp -e 1040 -c 3 -i 26 -a 3 -x {1.0 4.1 3 ------- null}
h -t 1.61316 -s 1 -d 3 -p tcp -e 1040 -c 3 -i 26 -a 3 -x {1.0 4.1 -1 ------- null}
+ -t 1.61316 -s 1 -d 3 -p tcp -e 1040 -c 3 -i 27 -a 3 -x {1.0 4.1 4 ------- null}
- -t 1.6142 -s 1 -d 3 -p tcp -e 1040 -c 3 -i 27 -a 3 -x {1.0 4.1 4 ------- null}
h -t 1.6142 -s 1 -d 3 -p tcp -e 1040 -c 3 -i 27 -a 3 -x {1.0 4.1 -1 ------- null}
r -t 1.6143 -s 1 -d 3 -p tcp -e 1040 -c 3 -i 26 -a 3 -x {1.0 4.1 3 ------- null}
+ -t 1.6143 -s 3 -d 4 -p tcp -e 1040 -c 3 -i 26 -a 3 -x {1.0 4.1 3 ------- null}
- -t 1.6143 -s 3 -d 4 -p tcp -e 1040 -c 3 -i 26 -a 3 -x {1.0 4.1 3 ------- null}
h -t 1.6143 -s 3 -d 4 -p tcp -e 1040 -c 3 -i 26 -a 3 -x {1.0 4.1 -1 ------- null}
r -t 1.61534 -s 1 -d 3 -p tcp -e 1040 -c 3 -i 27 -a 3 -x {1.0 4.1 4 ------- null}
+ -t 1.61534 -s 3 -d 4 -p tcp -e 1040 -c 3 -i 27 -a 3 -x {1.0 4.1 4 ------- null}
r -t 1.62342 -s 4 -d 3 -p ack -e 40 -c 1 -i 19 -a 1 -x {4.2 2.0 1 ------- null}
+ -t 1.62342 -s 3 -d 2 -p ack -e 40 -c 1 -i 19 -a 1 -x {4.2 2.0 1 ------- null}
- -t 1.62342 -s 3 -d 2 -p ack -e 40 -c 1 -i 19 -a 1 -x {4.2 2.0 1 ------- null}
h -t 1.62342 -s 3 -d 2 -p ack -e 40 -c 1 -i 19 -a 1 -x {4.2 2.0 -1 ------- null}
r -t 1.62356 -s 3 -d 2 -p ack -e 40 -c 1 -i 19 -a 1 -x {4.2 2.0 1 ------- null}
+ -t 1.62356 -s 2 -d 3 -p tcp -e 1040 -c 1 -i 28 -a 1 -x {2.0 4.2 3 ------- null}
- -t 1.62356 -s 2 -d 3 -p tcp -e 1040 -c 1 -i 28 -a 1 -x {2.0 4.2 3 ------- null}
h -t 1.62356 -s 2 -d 3 -p tcp -e 1040 -c 1 -i 28 -a 1 -x {2.0 4.2 -1 ------- null}
+ -t 1.62356 -s 2 -d 3 -p tcp -e 1040 -c 1 -i 29 -a 1 -x {2.0 4.2 4 ------- null}
- -t 1.6246 -s 2 -d 3 -p tcp -e 1040 -c 1 -i 29 -a 1 -x {2.0 4.2 4 ------- null}
h -t 1.6246 -s 2 -d 3 -p tcp -e 1040 -c 1 -i 29 -a 1 -x {2.0 4.2 -1 ------- null}
- -t 1.6247 -s 3 -d 4 -p tcp -e 1040 -c 3 -i 27 -a 3 -x {1.0 4.1 4 ------- null}
h -t 1.6247 -s 3 -d 4 -p tcp -e 1040 -c 3 -i 27 -a 3 -x {1.0 4.1 -1 ------- null}
r -t 1.6247 -s 2 -d 3 -p tcp -e 1040 -c 1 -i 28 -a 1 -x {2.0 4.2 3 ------- null}
+ -t 1.6247 -s 3 -d 4 -p tcp -e 1040 -c 1 -i 28 -a 1 -x {2.0 4.2 3 ------- null}
r -t 1.62574 -s 2 -d 3 -p tcp -e 1040 -c 1 -i 29 -a 1 -x {2.0 4.2 4 ------- null}
+ -t 1.62574 -s 3 -d 4 -p tcp -e 1040 -c 1 -i 29 -a 1 -x {2.0 4.2 4 ------- null}
r -t 1.63382 -s 4 -d 3 -p ack -e 40 -c 3 -i 20 -a 3 -x {4.1 1.0 2 ------- null}
+ -t 1.63382 -s 3 -d 1 -p ack -e 40 -c 3 -i 20 -a 3 -x {4.1 1.0 2 ------- null}
- -t 1.63382 -s 3 -d 1 -p ack -e 40 -c 3 -i 20 -a 3 -x {4.1 1.0 2 ------- null}
h -t 1.63382 -s 3 -d 1 -p ack -e 40 -c 3 -i 20 -a 3 -x {4.1 1.0 -1 ------- null}
r -t 1.63396 -s 3 -d 1 -p ack -e 40 -c 3 -i 20 -a 3 -x {4.1 1.0 2 ------- null}
+ -t 1.63396 -s 1 -d 3 -p tcp -e 1040 -c 3 -i 30 -a 3 -x {1.0 4.1 5 ------- null}
- -t 1.63396 -s 1 -d 3 -p tcp -e 1040 -c 3 -i 30 -a 3 -x {1.0 4.1 5 ------- null}
h -t 1.63396 -s 1 -d 3 -p tcp -e 1040 -c 3 -i 30 -a 3 -x {1.0 4.1 -1 ------- null}
+ -t 1.63396 -s 1 -d 3 -p tcp -e 1040 -c 3 -i 31 -a 3 -x {1.0 4.1 6 ------- null}
- -t 1.635 -s 1 -d 3 -p tcp -e 1040 -c 3 -i 31 -a 3 -x {1.0 4.1 6 ------- null}
h -t 1.635 -s 1 -d 3 -p tcp -e 1040 -c 3 -i 31 -a 3 -x {1.0 4.1 -1 ------- null}
- -t 1.6351 -s 3 -d 4 -p tcp -e 1040 -c 1 -i 28 -a 1 -x {2.0 4.2 3 ------- null}
h -t 1.6351 -s 3 -d 4 -p tcp -e 1040 -c 1 -i 28 -a 1 -x {2.0 4.2 -1 ------- null}
r -t 1.6351 -s 1 -d 3 -p tcp -e 1040 -c 3 -i 30 -a 3 -x {1.0 4.1 5 ------- null}
+ -t 1.6351 -s 3 -d 4 -p tcp -e 1040 -c 3 -i 30 -a 3 -x {1.0 4.1 5 ------- null}
r -t 1.63614 -s 1 -d 3 -p tcp -e 1040 -c 3 -i 31 -a 3 -x {1.0 4.1 6 ------- null}
+ -t 1.63614 -s 3 -d 4 -p tcp -e 1040 -c 3 -i 31 -a 3 -x {1.0 4.1 6 ------- null}
r -t 1.64422 -s 4 -d 3 -p ack -e 40 -c 1 -i 21 -a 1 -x {4.2 2.0 2 ------- null}
+ -t 1.64422 -s 3 -d 2 -p ack -e 40 -c 1 -i 21 -a 1 -x {4.2 2.0 2 ------- null}
- -t 1.64422 -s 3 -d 2 -p ack -e 40 -c 1 -i 21 -a 1 -x {4.2 2.0 2 ------- null}
h -t 1.64422 -s 3 -d 2 -p ack -e 40 -c 1 -i 21 -a 1 -x {4.2 2.0 -1 ------- null}
r -t 1.64436 -s 3 -d 2 -p ack -e 40 -c 1 -i 21 -a 1 -x {4.2 2.0 2 ------- null}
+ -t 1.64436 -s 2 -d 3 -p tcp -e 1040 -c 1 -i 32 -a 1 -x {2.0 4.2 5 ------- null}
- -t 1.64436 -s 2 -d 3 -p tcp -e 1040 -c 1 -i 32 -a 1 -x {2.0 4.2 5 ------- null}
h -t 1.64436 -s 2 -d 3 -p tcp -e 1040 -c 1 -i 32 -a 1 -x {2.0 4.2 -1 ------- null}
+ -t 1.64436 -s 2 -d 3 -p tcp -e 1040 -c 1 -i 33 -a 1 -x {2.0 4.2 6 ------- null}
- -t 1.6454 -s 2 -d 3 -p tcp -e 1040 -c 1 -i 33 -a 1 -x {2.0 4.2 6 ------- null}
h -t 1.6454 -s 2 -d 3 -p tcp -e 1040 -c 1 -i 33 -a 1 -x {2.0 4.2 -1 ------- null}
- -t 1.6455 -s 3 -d 4 -p tcp -e 1040 -c 1 -i 29 -a 1 -x {2.0 4.2 4 ------- null}
h -t 1.6455 -s 3 -d 4 -p tcp -e 1040 -c 1 -i 29 -a 1 -x {2.0 4.2 -1 ------- null}
r -t 1.6455 -s 2 -d 3 -p tcp -e 1040 -c 1 -i 32 -a 1 -x {2.0 4.2 5 ------- null}
+ -t 1.6455 -s 3 -d 4 -p tcp -e 1040 -c 1 -i 32 -a 1 -x {2.0 4.2 5 ------- null}
r -t 1.64654 -s 2 -d 3 -p tcp -e 1040 -c 1 -i 33 -a 1 -x {2.0 4.2 6 ------- null}
+ -t 1.64654 -s 3 -d 4 -p tcp -e 1040 -c 1 -i 33 -a 1 -x {2.0 4.2 6 ------- null}
r -t 1.65462 -s 4 -d 3 -p ack -e 40 -c 2 -i 22 -a 2 -x {4.0 0.0 3 ------- null}
+ -t 1.65462 -s 3 -d 0 -p ack -e 40 -c 2 -i 22 -a 2 -x {4.0 0.0 3 ------- null}
- -t 1.65462 -s 3 -d 0 -p ack -e 40 -c 2 -i 22 -a 2 -x {4.0 0.0 3 ------- null}
h -t 1.65462 -s 3 -d 0 -p ack -e 40 -c 2 -i 22 -a 2 -x {4.0 0.0 -1 ------- null}
r -t 1.65476 -s 3 -d 0 -p ack -e 40 -c 2 -i 22 -a 2 -x {4.0 0.0 3 ------- null}
+ -t 1.65476 -s 0 -d 3 -p tcp -e 1040 -c 2 -i 34 -a 2 -x {0.0 4.0 7 ------- null}
- -t 1.65476 -s 0 -d 3 -p tcp -e 1040 -c 2 -i 34 -a 2 -x {0.0 4.0 7 ------- null}
h -t 1.65476 -s 0 -d 3 -p tcp -e 1040 -c 2 -i 34 -a 2 -x {0.0 4.0 -1 ------- null}
+ -t 1.65476 -s 0 -d 3 -p tcp -e 1040 -c 2 -i 35 -a 2 -x {0.0 4.0 8 ------- null}
- -t 1.6558 -s 0 -d 3 -p tcp -e 1040 -c 2 -i 35 -a 2 -x {0.0 4.0 8 ------- null}
h -t 1.6558 -s 0 -d 3 -p tcp -e 1040 -c 2 -i 35 -a 2 -x {0.0 4.0 -1 ------- null}
- -t 1.6559 -s 3 -d 4 -p tcp -e 1040 -c 3 -i 30 -a 3 -x {1.0 4.1 5 ------- null}
h -t 1.6559 -s 3 -d 4 -p tcp -e 1040 -c 3 -i 30 -a 3 -x {1.0 4.1 -1 ------- null}
r -t 1.6559 -s 0 -d 3 -p tcp -e 1040 -c 2 -i 34 -a 2 -x {0.0 4.0 7 ------- null}
+ -t 1.6559 -s 3 -d 4 -p tcp -e 1040 -c 2 -i 34 -a 2 -x {0.0 4.0 7 ------- null}
r -t 1.65694 -s 0 -d 3 -p tcp -e 1040 -c 2 -i 35 -a 2 -x {0.0 4.0 8 ------- null}
+ -t 1.65694 -s 3 -d 4 -p tcp -e 1040 -c 2 -i 35 -a 2 -x {0.0 4.0 8 ------- null}
r -t 1.66502 -s 4 -d 3 -p ack -e 40 -c 2 -i 23 -a 2 -x {4.0 0.0 4 ------- null}
+ -t 1.66502 -s 3 -d 0 -p ack -e 40 -c 2 -i 23 -a 2 -x {4.0 0.0 4 ------- null}
- -t 1.66502 -s 3 -d 0 -p ack -e 40 -c 2 -i 23 -a 2 -x {4.0 0.0 4 ------- null}
h -t 1.66502 -s 3 -d 0 -p ack -e 40 -c 2 -i 23 -a 2 -x {4.0 0.0 -1 ------- null}
r -t 1.66516 -s 3 -d 0 -p ack -e 40 -c 2 -i 23 -a 2 -x {4.0 0.0 4 ------- null}
+ -t 1.66516 -s 0 -d 3 -p tcp -e 1040 -c 2 -i 36 -a 2 -x {0.0 4.0 9 ------- null}
- -t 1.66516 -s 0 -d 3 -p tcp -e 1040 -c 2 -i 36 -a 2 -x {0.0 4.0 9 ------- null}
h -t 1.66516 -s 0 -d 3 -p tcp -e 1040 -c 2 -i 36 -a 2 -x {0.0 4.0 -1 ------- null}
+ -t 1.66516 -s 0 -d 3 -p tcp -e 1040 -c 2 -i 37 -a 2 -x {0.0 4.0 10 ------- null}
- -t 1.6662 -s 0 -d 3 -p tcp -e 1040 -c 2 -i 37 -a 2 -x {0.0 4.0 10 ------- null}
h -t 1.6662 -s 0 -d 3 -p tcp -e 1040 -c 2 -i 37 -a 2 -x {0.0 4.0 -1 ------- null}
- -t 1.6663 -s 3 -d 4 -p tcp -e 1040 -c 3 -i 31 -a 3 -x {1.0 4.1 6 ------- null}
h -t 1.6663 -s 3 -d 4 -p tcp -e 1040 -c 3 -i 31 -a 3 -x {1.0 4.1 -1 ------- null}
r -t 1.6663 -s 0 -d 3 -p tcp -e 1040 -c 2 -i 36 -a 2 -x {0.0 4.0 9 ------- null}
+ -t 1.6663 -s 3 -d 4 -p tcp -e 1040 -c 2 -i 36 -a 2 -x {0.0 4.0 9 ------- null}
r -t 1.66734 -s 0 -d 3 -p tcp -e 1040 -c 2 -i 37 -a 2 -x {0.0 4.0 10 ------- null}
+ -t 1.66734 -s 3 -d 4 -p tcp -e 1040 -c 2 -i 37 -a 2 -x {0.0 4.0 10 ------- null}
r -t 1.67542 -s 4 -d 3 -p ack -e 40 -c 2 -i 24 -a 2 -x {4.0 0.0 5 ------- null}
+ -t 1.67542 -s 3 -d 0 -p ack -e 40 -c 2 -i 24 -a 2 -x {4.0 0.0 5 ------- null}
- -t 1.67542 -s 3 -d 0 -p ack -e 40 -c 2 -i 24 -a 2 -x {4.0 0.0 5 ------- null}
h -t 1.67542 -s 3 -d 0 -p ack -e 40 -c 2 -i 24 -a 2 -x {4.0 0.0 -1 ------- null}
r -t 1.67556 -s 3 -d 0 -p ack -e 40 -c 2 -i 24 -a 2 -x {4.0 0.0 5 ------- null}
+ -t 1.67556 -s 0 -d 3 -p tcp -e 1040 -c 2 -i 38 -a 2 -x {0.0 4.0 11 ------- null}
- -t 1.67556 -s 0 -d 3 -p tcp -e 1040 -c 2 -i 38 -a 2 -x {0.0 4.0 11 ------- null}
h -t 1.67556 -s 0 -d 3 -p tcp -e 1040 -c 2 -i 38 -a 2 -x {0.0 4.0 -1 ------- null}
+ -t 1.67556 -s 0 -d 3 -p tcp -e 1040 -c 2 -i 39 -a 2 -x {0.0 4.0 12 ------- null}
- -t 1.6766 -s 0 -d 3 -p tcp -e 1040 -c 2 -i 39 -a 2 -x {0.0 4.0 12 ------- null}
h -t 1.6766 -s 0 -d 3 -p tcp -e 1040 -c 2 -i 39 -a 2 -x {0.0 4.0 -1 ------- null}
- -t 1.6767 -s 3 -d 4 -p tcp -e 1040 -c 1 -i 32 -a 1 -x {2.0 4.2 5 ------- null}
h -t 1.6767 -s 3 -d 4 -p tcp -e 1040 -c 1 -i 32 -a 1 -x {2.0 4.2 -1 ------- null}
r -t 1.6767 -s 0 -d 3 -p tcp -e 1040 -c 2 -i 38 -a 2 -x {0.0 4.0 11 ------- null}
+ -t 1.6767 -s 3 -d 4 -p tcp -e 1040 -c 2 -i 38 -a 2 -x {0.0 4.0 11 ------- null}
r -t 1.67774 -s 0 -d 3 -p tcp -e 1040 -c 2 -i 39 -a 2 -x {0.0 4.0 12 ------- null}
+ -t 1.67774 -s 3 -d 4 -p tcp -e 1040 -c 2 -i 39 -a 2 -x {0.0 4.0 12 ------- null}
r -t 1.68582 -s 4 -d 3 -p ack -e 40 -c 2 -i 25 -a 2 -x {4.0 0.0 6 ------- null}
+ -t 1.68582 -s 3 -d 0 -p ack -e 40 -c 2 -i 25 -a 2 -x {4.0 0.0 6 ------- null}
- -t 1.68582 -s 3 -d 0 -p ack -e 40 -c 2 -i 25 -a 2 -x {4.0 0.0 6 ------- null}
h -t 1.68582 -s 3 -d 0 -p ack -e 40 -c 2 -i 25 -a 2 -x {4.0 0.0 -1 ------- null}
r -t 1.68596 -s 3 -d 0 -p ack -e 40 -c 2 -i 25 -a 2 -x {4.0 0.0 6 ------- null}
+ -t 1.68596 -s 0 -d 3 -p tcp -e 1040 -c 2 -i 40 -a 2 -x {0.0 4.0 13 ------- null}
- -t 1.68596 -s 0 -d 3 -p tcp -e 1040 -c 2 -i 40 -a 2 -x {0.0 4.0 13 ------- null}
h -t 1.68596 -s 0 -d 3 -p tcp -e 1040 -c 2 -i 40 -a 2 -x {0.0 4.0 -1 ------- null}
+ -t 1.68596 -s 0 -d 3 -p tcp -e 1040 -c 2 -i 41 -a 2 -x {0.0 4.0 14 ------- null}
- -t 1.687 -s 0 -d 3 -p tcp -e 1040 -c 2 -i 41 -a 2 -x {0.0 4.0 14 ------- null}
h -t 1.687 -s 0 -d 3 -p tcp -e 1040 -c 2 -i 41 -a 2 -x {0.0 4.0 -1 ------- null}
- -t 1.6871 -s 3 -d 4 -p tcp -e 1040 -c 1 -i 33 -a 1 -x {2.0 4.2 6 ------- null}
h -t 1.6871 -s 3 -d 4 -p tcp -e 1040 -c 1 -i 33 -a 1 -x {2.0 4.2 -1 ------- null}
r -t 1.6871 -s 0 -d 3 -p tcp -e 1040 -c 2 -i 40 -a 2 -x {0.0 4.0 13 ------- null}
+ -t 1.6871 -s 3 -d 4 -p tcp -e 1040 -c 2 -i 40 -a 2 -x {0.0 4.0 13 ------- null}
r -t 1.68814 -s 0 -d 3 -p tcp -e 1040 -c 2 -i 41 -a 2 -x {0.0 4.0 14 ------- null}
+ -t 1.68814 -s 3 -d 4 -p tcp -e 1040 -c 2 -i 41 -a 2 -x {0.0 4.0 14 ------- null}
d -t 1.68814 -s 3 -d 4 -p tcp -e 1040 -c 2 -i 41 -a 2 -x {0.0 4.0 14 ------- null}
- -t 1.6975 -s 3 -d 4 -p tcp -e 1040 -c 2 -i 34 -a 2 -x {0.0 4.0 7 ------- null}
h -t 1.6975 -s 3 -d 4 -p tcp -e 1040 -c 2 -i 34 -a 2 -x {0.0 4.0 -1 ------- null}
- -t 1.7079 -s 3 -d 4 -p tcp -e 1040 -c 2 -i 35 -a 2 -x {0.0 4.0 8 ------- null}
h -t 1.7079 -s 3 -d 4 -p tcp -e 1040 -c 2 -i 35 -a 2 -x {0.0 4.0 -1 ------- null}
- -t 1.7183 -s 3 -d 4 -p tcp -e 1040 -c 2 -i 36 -a 2 -x {0.0 4.0 9 ------- null}
h -t 1.7183 -s 3 -d 4 -p tcp -e 1040 -c 2 -i 36 -a 2 -x {0.0 4.0 -1 ------- null}
r -t 1.7247 -s 3 -d 4 -p tcp -e 1040 -c 3 -i 26 -a 3 -x {1.0 4.1 3 ------- null}
+ -t 1.7247 -s 4 -d 3 -p ack -e 40 -c 3 -i 42 -a 3 -x {4.1 1.0 3 ------- null}
- -t 1.7247 -s 4 -d 3 -p ack -e 40 -c 3 -i 42 -a 3 -x {4.1 1.0 3 ------- null}
h -t 1.7247 -s 4 -d 3 -p ack -e 40 -c 3 -i 42 -a 3 -x {4.1 1.0 -1 ------- null}
- -t 1.7287 -s 3 -d 4 -p tcp -e 1040 -c 2 -i 37 -a 2 -x {0.0 4.0 10 ------- null}
h -t 1.7287 -s 3 -d 4 -p tcp -e 1040 -c 2 -i 37 -a 2 -x {0.0 4.0 -1 ------- null}
r -t 1.7351 -s 3 -d 4 -p tcp -e 1040 -c 3 -i 27 -a 3 -x {1.0 4.1 4 ------- null}
+ -t 1.7351 -s 4 -d 3 -p ack -e 40 -c 3 -i 43 -a 3 -x {4.1 1.0 4 ------- null}
- -t 1.7351 -s 4 -d 3 -p ack -e 40 -c 3 -i 43 -a 3 -x {4.1 1.0 4 ------- null}
h -t 1.7351 -s 4 -d 3 -p ack -e 40 -c 3 -i 43 -a 3 -x {4.1 1.0 -1 ------- null}
- -t 1.7391 -s 3 -d 4 -p tcp -e 1040 -c 2 -i 38 -a 2 -x {0.0 4.0 11 ------- null}
h -t 1.7391 -s 3 -d 4 -p tcp -e 1040 -c 2 -i 38 -a 2 -x {0.0 4.0 -1 ------- null}
r -t 1.7455 -s 3 -d 4 -p tcp -e 1040 -c 1 -i 28 -a 1 -x {2.0 4.2 3 ------- null}
+ -t 1.7455 -s 4 -d 3 -p ack -e 40 -c 1 -i 44 -a 1 -x {4.2 2.0 3 ------- null}
- -t 1.7455 -s 4 -d 3 -p ack -e 40 -c 1 -i 44 -a 1 -x {4.2 2.0 3 ------- null}
h -t 1.7455 -s 4 -d 3 -p ack -e 40 -c 1 -i 44 -a 1 -x {4.2 2.0 -1 ------- null}
- -t 1.7495 -s 3 -d 4 -p tcp -e 1040 -c 2 -i 39 -a 2 -x {0.0 4.0 12 ------- null}
h -t 1.7495 -s 3 -d 4 -p tcp -e 1040 -c 2 -i 39 -a 2 -x {0.0 4.0 -1 ------- null}
r -t 1.7559 -s 3 -d 4 -p tcp -e 1040 -c 1 -i 29 -a 1 -x {2.0 4.2 4 ------- null}
+ -t 1.7559 -s 4 -d 3 -p ack -e 40 -c 1 -i 45 -a 1 -x {4.2 2.0 4 ------- null}
- -t 1.7559 -s 4 -d 3 -p ack -e 40 -c 1 -i 45 -a 1 -x {4.2 2.0 4 ------- null}
h -t 1.7559 -s 4 -d 3 -p ack -e 40 -c 1 -i 45 -a 1 -x {4.2 2.0 -1 ------- null}
- -t 1.7599 -s 3 -d 4 -p tcp -e 1040 -c 2 -i 40 -a 2 -x {0.0 4.0 13 ------- null}
h -t 1.7599 -s 3 -d 4 -p tcp -e 1040 -c 2 -i 40 -a 2 -x {0.0 4.0 -1 ------- null}
r -t 1.7663 -s 3 -d 4 -p tcp -e 1040 -c 3 -i 30 -a 3 -x {1.0 4.1 5 ------- null}
+ -t 1.7663 -s 4 -d 3 -p ack -e 40 -c 3 -i 46 -a 3 -x {4.1 1.0 5 ------- null}
- -t 1.7663 -s 4 -d 3 -p ack -e 40 -c 3 -i 46 -a 3 -x {4.1 1.0 5 ------- null}
h -t 1.7663 -s 4 -d 3 -p ack -e 40 -c 3 -i 46 -a 3 -x {4.1 1.0 -1 ------- null}
r -t 1.7767 -s 3 -d 4 -p tcp -e 1040 -c 3 -i 31 -a 3 -x {1.0 4.1 6 ------- null}
+ -t 1.7767 -s 4 -d 3 -p ack -e 40 -c 3 -i 47 -a 3 -x {4.1 1.0 6 ------- null}
- -t 1.7767 -s 4 -d 3 -p ack -e 40 -c 3 -i 47 -a 3 -x {4.1 1.0 6 ------- null}
h -t 1.7767 -s 4 -d 3 -p ack -e 40 -c 3 -i 47 -a 3 -x {4.1 1.0 -1 ------- null}
r -t 1.7871 -s 3 -d 4 -p tcp -e 1040 -c 1 -i 32 -a 1 -x {2.0 4.2 5 ------- null}
+ -t 1.7871 -s 4 -d 3 -p ack -e 40 -c 1 -i 48 -a 1 -x {4.2 2.0 5 ------- null}
- -t 1.7871 -s 4 -d 3 -p ack -e 40 -c 1 -i 48 -a 1 -x {4.2 2.0 5 ------- null}
h -t 1.7871 -s 4 -d 3 -p ack -e 40 -c 1 -i 48 -a 1 -x {4.2 2.0 -1 ------- null}
r -t 1.7975 -s 3 -d 4 -p tcp -e 1040 -c 1 -i 33 -a 1 -x {2.0 4.2 6 ------- null}
+ -t 1.7975 -s 4 -d 3 -p ack -e 40 -c 1 -i 49 -a 1 -x {4.2 2.0 6 ------- null}
- -t 1.7975 -s 4 -d 3 -p ack -e 40 -c 1 -i 49 -a 1 -x {4.2 2.0 6 ------- null}
h -t 1.7975 -s 4 -d 3 -p ack -e 40 -c 1 -i 49 -a 1 -x {4.2 2.0 -1 ------- null}
r -t 1.8079 -s 3 -d 4 -p tcp -e 1040 -c 2 -i 34 -a 2 -x {0.0 4.0 7 ------- null}
+ -t 1.8079 -s 4 -d 3 -p ack -e 40 -c 2 -i 50 -a 2 -x {4.0 0.0 7 ------- null}
- -t 1.8079 -s 4 -d 3 -p ack -e 40 -c 2 -i 50 -a 2 -x {4.0 0.0 7 ------- null}
h -t 1.8079 -s 4 -d 3 -p ack -e 40 -c 2 -i 50 -a 2 -x {4.0 0.0 -1 ------- null}
r -t 1.8183 -s 3 -d 4 -p tcp -e 1040 -c 2 -i 35 -a 2 -x {0.0 4.0 8 ------- null}
+ -t 1.8183 -s 4 -d 3 -p ack -e 40 -c 2 -i 51 -a 2 -x {4.0 0.0 8 ------- null}
- -t 1.8183 -s 4 -d 3 -p ack -e 40 -c 2 -i 51 -a 2 -x {4.0 0.0 8 ------- null}
h -t 1.8183 -s 4 -d 3 -p ack -e 40 -c 2 -i 51 -a 2 -x {4.0 0.0 -1 ------- null}
r -t 1.8251 -s 4 -d 3 -p ack -e 40 -c 3 -i 42 -a 3 -x {4.1 1.0 3 ------- null}
+ -t 1.8251 -s 3 -d 1 -p ack -e 40 -c 3 -i 42 -a 3 -x {4.1 1.0 3 ------- null}
- -t 1.8251 -s 3 -d 1 -p ack -e 40 -c 3 -i 42 -a 3 -x {4.1 1.0 3 ------- null}