V -t * -v 1.0a5 -a 0
A -t * -n 1 -p 0 -o 0x7fffffff -c 30 -a 1
A -t * -h 1 -m 1073741823 -s 0
c -t * -i 1 -n Blue
c -t * -i 2 -n Red
n -t * -a 4 -s 4 -S UP -v circle -c black -i black
n -t * -a 0 -s 0 -S UP -v circle -c black -i black
n -t * -a 1 -s 1 -S UP -v circle -c black -i black
n -t * -a 2 -s 2 -S UP -v circle -c black -i black
n -t * -a 3 -s 3 -S UP -v circle -c black -i black
l -t * -s 0 -d 2 -S UP -r 100000000 -D 0.0050000000000000001 -c black -o right-down
l -t * -s 1 -d 2 -S UP -r 100000000 -D 0.0050000000000000001 -c black -o right-up
l -t * -s 2 -d 4 -S UP -r 54000000 -D 0.01 -c black -o right
l -t * -s 3 -d 4 -S UP -r 10000000 -D 0.014999999999999999 -c black -o up
l -t * -s 2 -d 3 -S UP -r 54000000 -D 0.01 -c black -o right-down
q -t * -s 3 -d 2 -a 1.0
q -t * -s 2 -d 3 -a 1.0
+ -t 0.1 -s 0 -d 2 -p cbr -e 1000 -c 2 -i 0 -a 2 -x {0.0 3.0 0 ------- null}
- -t 0.1 -s 0 -d 2 -p cbr -e 1000 -c 2 -i 0 -a 2 -x {0.0 3.0 0 ------- null}
h -t 0.1 -s 0 -d 2 -p cbr -e 1000 -c 2 -i 0 -a 2 -x {0.0 3.0 -1 ------- null}
r -t 0.10508 -s 0 -d 2 -p cbr -e 1000 -c 2 -i 0 -a 2 -x {0.0 3.0 0 ------- null}
+ -t 0.10508 -s 2 -d 3 -p cbr -e 1000 -c 2 -i 0 -a 2 -x {0.0 3.0 0 ------- null}
- -t 0.10508 -s 2 -d 3 -p cbr -e 1000 -c 2 -i 0 -a 2 -x {0.0 3.0 0 ------- null}
h -t 0.10508 -s 2 -d 3 -p cbr -e 1000 -c 2 -i 0 -a 2 -x {0.0 3.0 -1 ------- null}
+ -t 0.108 -s 0 -d 2 -p cbr -e 1000 -c 2 -i 1 -a 2 -x {0.0 3.0 1 ------- null}
- -t 0.108 -s 0 -d 2 -p cbr -e 1000 -c 2 -i 1 -a 2 -x {0.0 3.0 1 ------- null}
h -t 0.108 -s 0 -d 2 -p cbr -e 1000 -c 2 -i 1 -a 2 -x {0.0 3.0 -1 ------- null}
r -t 0.11308 -s 0 -d 2 -p cbr -e 1000 -c 2 -i 1 -a 2 -x {0.0 3.0 1 ------- null}
+ -t 0.11308 -s 2 -d 3 -p cbr -e 1000 -c 2 -i 1 -a 2 -x {0.0 3.0 1 ------- null}
- -t 0.11308 -s 2 -d 3 -p cbr -e 1000 -c 2 -i 1 -a 2 -x {0.0 3.0 1 ------- null}
h -t 0.11308 -s 2 -d 3 -p cbr -e 1000 -c 2 -i 1 -a 2 -x {0.0 3.0 -1 ------- null}
r -t 0.115228148148148 -s 2 -d 3 -p cbr -e 1000 -c 2 -i 0 -a 2 -x {0.0 3.0 0 ------- null}
+ -t 0.116 -s 0 -d 2 -p cbr -e 1000 -c 2 -i 2 -a 2 -x {0.0 3.0 2 ------- null}
- -t 0.116 -s 0 -d 2 -p cbr -e 1000 -c 2 -i 2 -a 2 -x {0.0 3.0 2 ------- null}
h -t 0.116 -s 0 -d 2 -p cbr -e 1000 -c 2 -i 2 -a 2 -x {0.0 3.0 -1 ------- null}
r -t 0.12108 -s 0 -d 2 -p cbr -e 1000 -c 2 -i 2 -a 2 -x {0.0 3.0 2 ------- null}
+ -t 0.12108 -s 2 -d 3 -p cbr -e 1000 -c 2 -i 2 -a 2 -x {0.0 3.0 2 ------- null}
- -t 0.12108 -s 2 -d 3 -p cbr -e 1000 -c 2 -i 2 -a 2 -x {0.0 3.0 2 ------- null}
h -t 0.12108 -s 2 -d 3 -p cbr -e 1000 -c 2 -i 2 -a 2 -x {0.0 3.0 -1 ------- null}
r -t 0.123228148148148 -s 2 -d 3 -p cbr -e 1000 -c 2 -i 1 -a 2 -x {0.0 3.0 1 ------- null}
+ -t 0.124 -s 0 -d 2 -p cbr -e 1000 -c 2 -i 3 -a 2 -x {0.0 3.0 3 ------- null}
- -t 0.124 -s 0 -d 2 -p cbr -e 1000 -c 2 -i 3 -a 2 -x {0.0 3.0 3 ------- null}
h -t 0.124 -s 0 -d 2 -p cbr -e 1000 -c 2 -i 3 -a 2 -x {0.0 3.0 -1 ------- null}
r -t 0.12908 -s 0 -d 2 -p cbr -e 1000 -c 2 -i 3 -a 2 -x {0.0 3.0 3 ------- null}
+ -t 0.12908 -s 2 -d 3 -p cbr -e 1000 -c 2 -i 3 -a 2 -x {0.0 3.0 3 ------- null}
- -t 0.12908 -s 2 -d 3 -p cbr -e 1000 -c 2 -i 3 -a 2 -x {0.0 3.0 3 ------- null}
h -t 0.12908 -s 2 -d 3 -p cbr -e 1000 -c 2 -i 3 -a 2 -x {0.0 3.0 -1 ------- null}
r -t 0.131228148148148 -s 2 -d 3 -p cbr -e 1000 -c 2 -i 2 -a 2 -x {0.0 3.0 2 ------- null}
+ -t 0.132 -s 0 -d 2 -p cbr -e 1000 -c 2 -i 4 -a 2 -x {0.0 3.0 4 ------- null}
- -t 0.132 -s 0 -d 2 -p cbr -e 1000 -c 2 -i 4 -a 2 -x {0.0 3.0 4 ------- null}
h -t 0.132 -s 0 -d 2 -p cbr -e 1000 -c 2 -i 4 -a 2 -x {0.0 3.0 -1 ------- null}
r -t 0.13708 -s 0 -d 2 -p cbr -e 1000 -c 2 -i 4 -a 2 -x {0.0 3.0 4 ------- null}
+ -t 0.13708 -s 2 -d 3 -p cbr -e 1000 -c 2 -i 4 -a 2 -x {0.0 3.0 4 ------- null}
- -t 0.13708 -s 2 -d 3 -p cbr -e 1000 -c 2 -i 4 -a 2 -x {0.0 3.0 4 ------- null}
h -t 0.13708 -s 2 -d 3 -p cbr -e 1000 -c 2 -i 4 -a 2 -x {0.0 3.0 -1 ------- null}
r -t 0.139228148148148 -s 2 -d 3 -p cbr -e 1000 -c 2 -i 3 -a 2 -x {0.0 3.0 3 ------- null}
+ -t 0.14 -s 0 -d 2 -p cbr -e 1000 -c 2 -i 5 -a 2 -x {0.0 3.0 5 ------- null}
- -t 0.14 -s 0 -d 2 -p cbr -e 1000 -c 2 -i 5 -a 2 -x {0.0 3.0 5 ------- null}
h -t 0.14 -s 0 -d 2 -p cbr -e 1000 -c 2 -i 5 -a 2 -x {0.0 3.0 -1 ------- null}
r -t 0.14508 -s 0 -d 2 -p cbr -e 1000 -c 2 -i 5 -a 2 -x {0.0 3.0 5 ------- null}
+ -t 0.14508 -s 2 -d 3 -p cbr -e 1000 -c 2 -i 5 -a 2 -x {0.0 3.0 5 ------- null}
- -t 0.14508 -s 2 -d 3 -p cbr -e 1000 -c 2 -i 5 -a 2 -x {0.0 3.0 5 ------- null}
h -t 0.14508 -s 2 -d 3 -p cbr -e 1000 -c 2 -i 5 -a 2 -x {0.0 3.0 -1 ------- null}
r -t 0.147228148148148 -s 2 -d 3 -p cbr -e 1000 -c 2 -i 4 -a 2 -x {0.0 3.0 4 ------- null}
+ -t 0.148 -s 0 -d 2 -p cbr -e 1000 -c 2 -i 6 -a 2 -x {0.0 3.0 6 ------- null}
- -t 0.148 -s 0 -d 2 -p cbr -e 1000 -c 2 -i 6 -a 2 -x {0.0 3.0 6 ------- null}
h -t 0.148 -s 0 -d 2 -p cbr -e 1000 -c 2 -i 6 -a 2 -x {0.0 3.0 -1 ------- null}
r -t 0.15308 -s 0 -d 2 -p cbr -e 1000 -c 2 -i 6 -a 2 -x {0.0 3.0 6 ------- null}
+ -t 0.15308 -s 2 -d 3 -p cbr -e 1000 -c 2 -i 6 -a 2 -x {0.0 3.0 6 ------- null}
- -t 0.15308 -s 2 -d 3 -p cbr -e 1000 -c 2 -i 6 -a 2 -x {0.0 3.0 6 ------- null}
h -t 0.15308 -s 2 -d 3 -p cbr -e 1000 -c 2 -i 6 -a 2 -x {0.0 3.0 -1 ------- null}
r -t 0.155228148148148 -s 2 -d 3 -p cbr -e 1000 -c 2 -i 5 -a 2 -x {0.0 3.0 5 ------- null}
+ -t 0.156 -s 0 -d 2 -p cbr -e 1000 -c 2 -i 7 -a 2 -x {0.0 3.0 7 ------- null}
- -t 0.156 -s 0 -d 2 -p cbr -e 1000 -c 2 -i 7 -a 2 -x {0.0 3.0 7 ------- null}
h -t 0.156 -s 0 -d 2 -p cbr -e 1000 -c 2 -i 7 -a 2 -x {0.0 3.0 -1 ------- null}
r -t 0.16108 -s 0 -d 2 -p cbr -e 1000 -c 2 -i 7 -a 2 -x {0.0 3.0 7 ------- null}
+ -t 0.16108 -s 2 -d 3 -p cbr -e 1000 -c 2 -i 7 -a 2 -x {0.0 3.0 7 ------- null}
- -t 0.16108 -s 2 -d 3 -p cbr -e 1000 -c 2 -i 7 -a 2 -x {0.0 3.0 7 ------- null}
h -t 0.16108 -s 2 -d 3 -p cbr -e 1000 -c 2 -i 7 -a 2 -x {0.0 3.0 -1 ------- null}
r -t 0.163228148148148 -s 2 -d 3 -p cbr -e 1000 -c 2 -i 6 -a 2 -x {0.0 3.0 6 ------- null}
+ -t 0.164 -s 0 -d 2 -p cbr -e 1000 -c 2 -i 8 -a 2 -x {0.0 3.0 8 ------- null}
- -t 0.164 -s 0 -d 2 -p cbr -e 1000 -c 2 -i 8 -a 2 -x {0.0 3.0 8 ------- null}
h -t 0.164 -s 0 -d 2 -p cbr -e 1000 -c 2 -i 8 -a 2 -x {0.0 3.0 -1 ------- null}
r -t 0.16908 -s 0 -d 2 -p cbr -e 1000 -c 2 -i 8 -a 2 -x {0.0 3.0 8 ------- null}
+ -t 0.16908 -s 2 -d 3 -p cbr -e 1000 -c 2 -i 8 -a 2 -x {0.0 3.0 8 ------- null}
- -t 0.16908 -s 2 -d 3 -p cbr -e 1000 -c 2 -i 8 -a 2 -x {0.0 3.0 8 ------- null}
h -t 0.16908 -s 2 -d 3 -p cbr -e 1000 -c 2 -i 8 -a 2 -x {0.0 3.0 -1 ------- null}
r -t 0.171228148148148 -s 2 -d 3 -p cbr -e 1000 -c 2 -i 7 -a 2 -x {0.0 3.0 7 ------- null}
+ -t 0.172 -s 0 -d 2 -p cbr -e 1000 -c 2 -i 9 -a 2 -x {0.0 3.0 9 ------- null}
- -t 0.172 -s 0 -d 2 -p cbr -e 1000 -c 2 -i 9 -a 2 -x {0.0 3.0 9 ------- null}
h -t 0.172 -s 0 -d 2 -p cbr -e 1000 -c 2 -i 9 -a 2 -x {0.0 3.0 -1 ------- null}
r -t 0.17708 -s 0 -d 2 -p cbr -e 1000 -c 2 -i 9 -a 2 -x {0.0 3.0 9 ------- null}
+ -t 0.17708 -s 2 -d 3 -p cbr -e 1000 -c 2 -i 9 -a 2 -x {0.0 3.0 9 ------- null}
- -t 0.17708 -s 2 -d 3 -p cbr -e 1000 -c 2 -i 9 -a 2 -x {0.0 3.0 9 ------- null}
h -t 0.17708 -s 2 -d 3 -p cbr -e 1000 -c 2 -i 9 -a 2 -x {0.0 3.0 -1 ------- null}
r -t 0.179228148148148 -s 2 -d 3 -p cbr -e 1000 -c 2 -i 8 -a 2 -x {0.0 3.0 8 ------- null}
+ -t 0.18 -s 0 -d 2 -p cbr -e 1000 -c 2 -i 10 -a 2 -x {0.0 3.0 10 ------- null}
- -t 0.18 -s 0 -d 2 -p cbr -e 1000 -c 2 -i 10 -a 2 -x {0.0 3.0 10 ------- null}
h -t 0.18 -s 0 -d 2 -p cbr -e 1000 -c 2 -i 10 -a 2 -x {0.0 3.0 -1 ------- null}
r -t 0.18508 -s 0 -d 2 -p cbr -e 1000 -c 2 -i 10 -a 2 -x {0.0 3.0 10 ------- null}
+ -t 0.18508 -s 2 -d 3 -p cbr -e 1000 -c 2 -i 10 -a 2 -x {0.0 3.0 10 ------- null}
- -t 0.18508 -s 2 -d 3 -p cbr -e 1000 -c 2 -i 10 -a 2 -x {0.0 3.0 10 ------- null}
h -t 0.18508 -s 2 -d 3 -p cbr -e 1000 -c 2 -i 10 -a 2 -x {0.0 3.0 -1 ------- null}
r -t 0.187228148148148 -s 2 -d 3 -p cbr -e 1000 -c 2 -i 9 -a 2 -x {0.0 3.0 9 ------- null}
+ -t 0.188 -s 0 -d 2 -p cbr -e 1000 -c 2 -i 11 -a 2 -x {0.0 3.0 11 ------- null}
- -t 0.188 -s 0 -d 2 -p cbr -e 1000 -c 2 -i 11 -a 2 -x {0.0 3.0 11 ------- null}
h -t 0.188 -s 0 -d 2 -p cbr -e 1000 -c 2 -i 11 -a 2 -x {0.0 3.0 -1 ------- null}
r -t 0.19308 -s 0 -d 2 -p cbr -e 1000 -c 2 -i 11 -a 2 -x {0.0 3.0 11 ------- null}
+ -t 0.19308 -s 2 -d 3 -p cbr -e 1000 -c 2 -i 11 -a 2 -x {0.0 3.0 11 ------- null}
- -t 0.19308 -s 2 -d 3 -p cbr -e 1000 -c 2 -i 11 -a 2 -x {0.0 3.0 11 ------- null}
h -t 0.19308 -s 2 -d 3 -p cbr -e 1000 -c 2 -i 11 -a 2 -x {0.0 3.0 -1 ------- null}
r -t 0.195228148148148 -s 2 -d 3 -p cbr -e 1000 -c 2 -i 10 -a 2 -x {0.0 3.0 10 ------- null}
+ -t 0.196 -s 0 -d 2 -p cbr -e 1000 -c 2 -i 12 -a 2 -x {0.0 3.0 12 ------- null}
- -t 0.196 -s 0 -d 2 -p cbr -e 1000 -c 2 -i 12 -a 2 -x {0.0 3.0 12 ------- null}
h -t 0.196 -s 0 -d 2 -p cbr -e 1000 -c 2 -i 12 -a 2 -x {0.0 3.0 -1 ------- null}
r -t 0.20108 -s 0 -d 2 -p cbr -e 1000 -c 2 -i 12 -a 2 -x {0.0 3.0 12 ------- null}
+ -t 0.20108 -s 2 -d 3 -p cbr -e 1000 -c 2 -i 12 -a 2 -x {0.0 3.0 12 ------- null}
- -t 0.20108 -s 2 -d 3 -p cbr -e 1000 -c 2 -i 12 -a 2 -x {0.0 3.0 12 ------- null}
h -t 0.20108 -s 2 -d 3 -p cbr -e 1000 -c 2 -i 12 -a 2 -x {0.0 3.0 -1 ------- null}
r -t 0.203228148148148 -s 2 -d 3 -p cbr -e 1000 -c 2 -i 11 -a 2 -x {0.0 3.0 11 ------- null}
+ -t 0.204 -s 0 -d 2 -p cbr -e 1000 -c 2 -i 13 -a 2 -x {0.0 3.0 13 ------- null}
- -t 0.204 -s 0 -d 2 -p cbr -e 1000 -c 2 -i 13 -a 2 -x {0.0 3.0 13 ------- null}
h -t 0.204 -s 0 -d 2 -p cbr -e 1000 -c 2 -i 13 -a 2 -x {0.0 3.0 -1 ------- null}
r -t 0.20908 -s 0 -d 2 -p cbr -e 1000 -c 2 -i 13 -a 2 -x {0.0 3.0 13 ------- null}
+ -t 0.20908 -s 2 -d 3 -p cbr -e 1000 -c 2 -i 13 -a 2 -x {0.0 3.0 13 ------- null}
- -t 0.20908 -s 2 -d 3 -p cbr -e 1000 -c 2 -i 13 -a 2 -x {0.0 3.0 13 ------- null}
h -t 0.20908 -s 2 -d 3 -p cbr -e 1000 -c 2 -i 13 -a 2 -x {0.0 3.0 -1 ------- null}
r -t 0.211228148148148 -s 2 -d 3 -p cbr -e 1000 -c 2 -i 12 -a 2 -x {0.0 3.0 12 ------- null}
+ -t 0.212 -s 0 -d 2 -p cbr -e 1000 -c 2 -i 14 -a 2 -x {0.0 3.0 14 ------- null}
- -t 0.212 -s 0 -d 2 -p cbr -e 1000 -c 2 -i 14 -a 2 -x {0.0 3.0 14 ------- null}
h -t 0.212 -s 0 -d 2 -p cbr -e 1000 -c 2 -i 14 -a 2 -x {0.0 3.0 -1 ------- null}
r -t 0.21708 -s 0 -d 2 -p cbr -e 1000 -c 2 -i 14 -a 2 -x {0.0 3.0 14 ------- null}
+ -t 0.21708 -s 2 -d 3 -p cbr -e 1000 -c 2 -i 14 -a 2 -x {0.0 3.0 14 ------- null}
- -t 0.21708 -s 2 -d 3 -p cbr -e 1000 -c 2 -i 14 -a 2 -x {0.0 3.0 14 ------- null}
h -t 0.21708 -s 2 -d 3 -p cbr -e 1000 -c 2 -i 14 -a 2 -x {0.0 3.0 -1 ------- null}
r -t 0.219228148148148 -s 2 -d 3 -p cbr -e 1000 -c 2 -i 13 -a 2 -x {0.0 3.0 13 ------- null}
+ -t 0.22 -s 0 -d 2 -p cbr -e 1000 -c 2 -i 15 -a 2 -x {0.0 3.0 15 ------- null}
- -t 0.22 -s 0 -d 2 -p cbr -e 1000 -c 2 -i 15 -a 2 -x {0.0 3.0 15 ------- null}
h -t 0.22 -s 0 -d 2 -p cbr -e 1000 -c 2 -i 15 -a 2 -x {0.0 3.0 -1 ------- null}
r -t 0.22508 -s 0 -d 2 -p cbr -e 1000 -c 2 -i 15 -a 2 -x {0.0 3.0 15 ------- null}
+ -t 0.22508 -s 2 -d 3 -p cbr -e 1000 -c 2 -i 15 -a 2 -x {0.0 3.0 15 ------- null}
- -t 0.22508 -s 2 -d 3 -p cbr -e 1000 -c 2 -i 15 -a 2 -x {0.0 3.0 15 ------- null}
h -t 0.22508 -s 2 -d 3 -p cbr -e 1000 -c 2 -i 15 -a 2 -x {0.0 3.0 -1 ------- null}
r -t 0.227228148148148 -s 2 -d 3 -p cbr -e 1000 -c 2 -i 14 -a 2 -x {0.0 3.0 14 ------- null}
+ -t 0.228 -s 0 -d 2 -p cbr -e 1000 -c 2 -i 16 -a 2 -x {0.0 3.0 16 ------- null}
- -t 0.228 -s 0 -d 2 -p cbr -e 1000 -c 2 -i 16 -a 2 -x {0.0 3.0 16 ------- null}
h -t 0.228 -s 0 -d 2 -p cbr -e 1000 -c 2 -i 16 -a 2 -x {0.0 3.0 -1 ------- null}
r -t 0.23308 -s 0 -d 2 -p cbr -e 1000 -c 2 -i 16 -a 2 -x {0.0 3.0 16 ------- null}
+ -t 0.23308 -s 2 -d 3 -p cbr -e 1000 -c 2 -i 16 -a 2 -x {0.0 3.0 16 ------- null}
- -t 0.23308 -s 2 -d 3 -p cbr -e 1000 -c 2 -i 16 -a 2 -x {0.0 3.0 16 ------- null}
h -t 0.23308 -s 2 -d 3 -p cbr -e 1000 -c 2 -i 16 -a 2 -x {0.0 3.0 -1 ------- null}
r -t 0.235228148148148 -s 2 -d 3 -p cbr -e 1000 -c 2 -i 15 -a 2 -x {0.0 3.0 15 ------- null}
+ -t 0.236 -s 0 -d 2 -p cbr -e 1000 -c 2 -i 17 -a 2 -x {0.0 3.0 17 ------- null}
- -t 0.236 -s 0 -d 2 -p cbr -e 1000 -c 2 -i 17 -a 2 -x {0.0 3.0 17 ------- null}
h -t 0.236 -s 0 -d 2 -p cbr -e 1000 -c 2 -i 17 -a 2 -x {0.0 3.0 -1 ------- null}
r -t 0.24108 -s 0 -d 2 -p cbr -e 1000 -c 2 -i 17 -a 2 -x {0.0 3.0 17 ------- null}
+ -t 0.24108 -s 2 -d 3 -p cbr -e 1000 -c 2 -i 17 -a 2 -x {0.0 3.0 17 ------- null}
- -t 0.24108 -s 2 -d 3 -p cbr -e 1000 -c 2 -i 17 -a 2 -x {0.0 3.0 17 ------- null}
h -t 0.24108 -s 2 -d 3 -p cbr -e 1000 -c 2 -i 17 -a 2 -x {0.0 3.0 -1 ------- null}
r -t 0.243228148148148 -s 2 -d 3 -p cbr -e 1000 -c 2 -i 16 -a 2 -x {0.0 3.0 16 ------- null}
+ -t 0.244 -s 0 -d 2 -p cbr -e 1000 -c 2 -i 18 -a 2 -x {0.0 3.0 18 ------- null}
- -t 0.244 -s 0 -d 2 -p cbr -e 1000 -c 2 -i 18 -a 2 -x {0.0 3.0 18 ------- null}
h -t 0.244 -s 0 -d 2 -p cbr -e 1000 -c 2 -i 18 -a 2 -x {0.0 3.0 -1 ------- null}
r -t 0.24908 -s 0 -d 2 -p cbr -e 1000 -c 2 -i 18 -a 2 -x {0.0 3.0 18 ------- null}
+ -t 0.24908 -s 2 -d 3 -p cbr -e 1000 -c 2 -i 18 -a 2 -x {0.0 3.0 18 ------- null}
- -t 0.24908 -s 2 -d 3 -p cbr -e 1000 -c 2 -i 18 -a 2 -x {0.0 3.0 18 ------- null}
h -t 0.24908 -s 2 -d 3 -p cbr -e 1000 -c 2 -i 18 -a 2 -x {0.0 3.0 -1 ------- null}
r -t 0.251228148148148 -s 2 -d 3 -p cbr -e 1000 -c 2 -i 17 -a 2 -x {0.0 3.0 17 ------- null}
+ -t 0.252 -s 0 -d 2 -p cbr -e 1000 -c 2 -i 19 -a 2 -x {0.0 3.0 19 ------- null}
- -t 0.252 -s 0 -d 2 -p cbr -e 1000 -c 2 -i 19 -a 2 -x {0.0 3.0 19 ------- null}
h -t 0.252 -s 0 -d 2 -p cbr -e 1000 -c 2 -i 19 -a 2 -x {0.0 3.0 -1 ------- null}
r -t 0.25708 -s 0 -d 2 -p cbr -e 1000 -c 2 -i 19 -a 2 -x {0.0 3.0 19 ------- null}
+ -t 0.25708 -s 2 -d 3 -p cbr -e 1000 -c 2 -i 19 -a 2 -x {0.0 3.0 19 ------- null}
- -t 0.25708 -s 2 -d 3 -p cbr -e 1000 -c 2 -i 19 -a 2 -x {0.0 3.0 19 ------- null}
h -t 0.25708 -s 2 -d 3 -p cbr -e 1000 -c 2 -i 19 -a 2 -x {0.0 3.0 -1 ------- null}
r -t 0.259228148148148 -s 2 -d 3 -p cbr -e 1000 -c 2 -i 18 -a 2 -x {0.0 3.0 18 ------- null}
+ -t 0.26 -s 0 -d 2 -p cbr -e 1000 -c 2 -i 20 -a 2 -x {0.0 3.0 20 ------- null}
- -t 0.26 -s 0 -d 2 -p cbr -e 1000 -c 2 -i 20 -a 2 -x {0.0 3.0 20 ------- null}
h -t 0.26 -s 0 -d 2 -p cbr -e 1000 -c 2 -i 20 -a 2 -x {0.0 3.0 -1 ------- null}
r -t 0.26508 -s 0 -d 2 -p cbr -e 1000 -c 2 -i 20 -a 2 -x {0.0 3.0 20 ------- null}
+ -t 0.26508 -s 2 -d 3 -p cbr -e 1000 -c 2 -i 20 -a 2 -x {0.0 3.0 20 ------- null}
- -t 0.26508 -s 2 -d 3 -p cbr -e 1000 -c 2 -i 20 -a 2 -x {0.0 3.0 20 ------- null}
h -t 0.26508 -s 2 -d 3 -p cbr -e 1000 -c 2 -i 20 -a 2 -x {0.0 3.0 -1 ------- null}
r -t 0.267228148148148 -s 2 -d 3 -p cbr -e 1000 -c 2 -i 19 -a 2 -x {0.0 3.0 19 ------- null}
+ -t 0.268 -s 0 -d 2 -p cbr -e 1000 -c 2 -i 21 -a 2 -x {0.0 3.0 21 ------- null}
- -t 0.268 -s 0 -d 2 -p cbr -e 1000 -c 2 -i 21 -a 2 -x {0.0 3.0 21 ------- null}
h -t 0.268 -s 0 -d 2 -p cbr -e 1000 -c 2 -i 21 -a 2 -x {0.0 3.0 -1 ------- null}
r -t 0.27308 -s 0 -d 2 -p cbr -e 1000 -c 2 -i 21 -a 2 -x {0.0 3.0 21 ------- null}
+ -t 0.27308 -s 2 -d 3 -p cbr -e 1000 -c 2 -i 21 -a 2 -x {0.0 3.0 21 ------- null}
- -t 0.27308 -s 2 -d 3 -p cbr -e 1000 -c 2 -i 21 -a 2 -x {0.0 3.0 21 ------- null}
h -t 0.27308 -s 2 -d 3 -p cbr -e 1000 -c 2 -i 21 -a 2 -x {0.0 3.0 -1 ------- null}
r -t 0.275228148148148 -s 2 -d 3 -p cbr -e 1000 -c 2 -i 20 -a 2 -x {0.0 3.0 20 ------- null}
+ -t 0.276 -s 0 -d 2 -p cbr -e 1000 -c 2 -i 22 -a 2 -x {0.0 3.0 22 ------- null}
- -t 0.276 -s 0 -d 2 -p cbr -e 1000 -c 2 -i 22 -a 2 -x {0.0 3.0 22 ------- null}
h -t 0.276 -s 0 -d 2 -p cbr -e 1000 -c 2 -i 22 -a 2 -x {0.0 3.0 -1 ------- null}
r -t 0.28108 -s 0 -d 2 -p cbr -e 1000 -c 2 -i 22 -a 2 -x {0.0 3.0 22 ------- null}
+ -t 0.28108 -s 2 -d 3 -p cbr -e 1000 -c 2 -i 22 -a 2 -x {0.0 3.0 22 ------- null}
- -t 0.28108 -s 2 -d 3 -p cbr -e 1000 -c 2 -i 22 -a 2 -x {0.0 3.0 22 ------- null}
h -t 0.28108 -s 2 -d 3 -p cbr -e 1000 -c 2 -i 22 -a 2 -x {0.0 3.0 -1 ------- null}
r -t 0.283228148148148 -s 2 -d 3 -p cbr -e 1000 -c 2 -i 21 -a 2 -x {0.0 3.0 21 ------- null}
+ -t 0.284 -s 0 -d 2 -p cbr -e 1000 -c 2 -i 23 -a 2 -x {0.0 3.0 23 ------- null}
- -t 0.284 -s 0 -d 2 -p cbr -e 1000 -c 2 -i 23 -a 2 -x {0.0 3.0 23 ------- null}
h -t 0.284 -s 0 -d 2 -p cbr -e 1000 -c 2 -i 23 -a 2 -x {0.0 3.0 -1 ------- null}
r -t 0.28908 -s 0 -d 2 -p cbr -e 1000 -c 2 -i 23 -a 2 -x {0.0 3.0 23 ------- null}
+ -t 0.28908 -s 2 -d 3 -p cbr -e 1000 -c 2 -i 23 -a 2 -x {0.0 3.0 23 ------- null}
- -t 0.28908 -s 2 -d 3 -p cbr -e 1000 -c 2 -i 23 -a 2 -x {0.0 3.0 23 ------- null}
h -t 0.28908 -s 2 -d 3 -p cbr -e 1000 -c 2 -i 23 -a 2 -x {0.0 3.0 -1 ------- null}
r -t 0.291228148148148 -s 2 -d 3 -p cbr -e 1000 -c 2 -i 22 -a 2 -x {0.0 3.0 22 ------- null}
+ -t 0.292 -s 0 -d 2 -p cbr -e 1000 -c 2 -i 24 -a 2 -x {0.0 3.0 24 ------- null}
- -t 0.292 -s 0 -d 2 -p cbr -e 1000 -c 2 -i 24 -a 2 -x {0.0 3.0 24 ------- null}
h -t 0.292 -s 0 -d 2 -p cbr -e 1000 -c 2 -i 24 -a 2 -x {0.0 3.0 -1 ------- null}
r -t 0.29708 -s 0 -d 2 -p cbr -e 1000 -c 2 -i 24 -a 2 -x {0.0 3.0 24 ------- null}
+ -t 0.29708 -s 2 -d 3 -p cbr -e 1000 -c 2 -i 24 -a 2 -x {0.0 3.0 24 ------- null}
- -t 0.29708 -s 2 -d 3 -p cbr -e 1000 -c 2 -i 24 -a 2 -x {0.0 3.0 24 ------- null}
h -t 0.29708 -s 2 -d 3 -p cbr -e 1000 -c 2 -i 24 -a 2 -x {0.0 3.0 -1 ------- null}
r -t 0.299228148148148 -s 2 -d 3 -p cbr -e 1000 -c 2 -i 23 -a 2 -x {0.0 3.0 23 ------- null}
+ -t 0.3 -s 0 -d 2 -p cbr -e 1000 -c 2 -i 25 -a 2 -x {0.0 3.0 25 ------- null}
- -t 0.3 -s 0 -d 2 -p cbr -e 1000 -c 2 -i 25 -a 2 -x {0.0 3.0 25 ------- null}
h -t 0.3 -s 0 -d 2 -p cbr -e 1000 -c 2 -i 25 -a 2 -x {0.0 3.0 -1 ------- null}
r -t 0.30508 -s 0 -d 2 -p cbr -e 1000 -c 2 -i 25 -a 2 -x {0.0 3.0 25 ------- null}
+ -t 0.30508 -s 2 -d 3 -p cbr -e 1000 -c 2 -i 25 -a 2 -x {0.0 3.0 25 ------- null}
- -t 0.30508 -s 2 -d 3 -p cbr -e 1000 -c 2 -i 25 -a 2 -x {0.0 3.0 25 ------- null}
h -t 0.30508 -s 2 -d 3 -p cbr -e 1000 -c 2 -i 25 -a 2 -x {0.0 3.0 -1 ------- null}
r -t 0.307228148148148 -s 2 -d 3 -p cbr -e 1000 -c 2 -i 24 -a 2 -x {0.0 3.0 24 ------- null}
+ -t 0.308 -s 0 -d 2 -p cbr -e 1000 -c 2 -i 26 -a 2 -x {0.0 3.0 26 ------- null}
- -t 0.308 -s 0 -d 2 -p cbr -e 1000 -c 2 -i 26 -a 2 -x {0.0 3.0 26 ------- null}
h -t 0.308 -s 0 -d 2 -p cbr -e 1000 -c 2 -i 26 -a 2 -x {0.0 3.0 -1 ------- null}
r -t 0.31308 -s 0 -d 2 -p cbr -e 1000 -c 2 -i 26 -a 2 -x {0.0 3.0 26 ------- null}
+ -t 0.31308 -s 2 -d 3 -p cbr -e 1000 -c 2 -i 26 -a 2 -x {0.0 3.0 26 ------- null}
- -t 0.31308 -s 2 -d 3 -p cbr -e 1000 -c 2 -i 26 -a 2 -x {0.0 3.0 26 ------- null}
h -t 0.31308 -s 2 -d 3 -p cbr -e 1000 -c 2 -i 26 -a 2 -x {0.0 3.0 -1 ------- null}
r -t 0.315228148148148 -s 2 -d 3 -p cbr -e 1000 -c 2 -i 25 -a 2 -x {0.0 3.0 25 ------- null}
+ -t 0.316 -s 0 -d 2 -p cbr -e 1000 -c 2 -i 27 -a 2 -x {0.0 3.0 27 ------- null}
- -t 0.316 -s 0 -d 2 -p cbr -e 1000 -c 2 -i 27 -a 2 -x {0.0 3.0 27 ------- null}
h -t 0.316 -s 0 -d 2 -p cbr -e 1000 -c 2 -i 27 -a 2 -x {0.0 3.0 -1 ------- null}
r -t 0.32108 -s 0 -d 2 -p cbr -e 1000 -c 2 -i 27 -a 2 -x {0.0 3.0 27 ------- null}
+ -t 0.32108 -s 2 -d 3 -p cbr -e 1000 -c 2 -i 27 -a 2 -x {0.0 3.0 27 ------- null}
- -t 0.32108 -s 2 -d 3 -p cbr -e 1000 -c 2 -i 27 -a 2 -x {0.0 3.0 27 ------- null}
h -t 0.32108 -s 2 -d 3 -p cbr -e 1000 -c 2 -i 27 -a 2 -x {0.0 3.0 -1 ------- null}
r -t 0.323228148148148 -s 2 -d 3 -p cbr -e 1000 -c 2 -i 26 -a 2 -x {0.0 3.0 26 ------- null}
+ -t 0.324 -s 0 -d 2 -p cbr -e 1000 -c 2 -i 28 -a 2 -x {0.0 3.0 28 ------- null}
- -t 0.324 -s 0 -d 2 -p cbr -e 1000 -c 2 -i 28 -a 2 -x {0.0 3.0 28 ------- null}
h -t 0.324 -s 0 -d 2 -p cbr -e 1000 -c 2 -i 28 -a 2 -x {0.0 3.0 -1 ------- null}
r -t 0.32908 -s 0 -d 2 -p cbr -e 1000 -c 2 -i 28 -a 2 -x {0.0 3.0 28 ------- null}
+ -t 0.32908 -s 2 -d 3 -p cbr -e 1000 -c 2 -i 28 -a 2 -x {0.0 3.0 28 ------- null}
- -t 0.32908 -s 2 -d 3 -p cbr -e 1000 -c 2 -i 28 -a 2 -x {0.0 3.0 28 ------- null}
h -t 0.32908 -s 2 -d 3 -p cbr -e 1000 -c 2 -i 28 -a 2 -x {0.0 3.0 -1 ------- null}
r -t 0.331228148148148 -s 2 -d 3 -p cbr -e 1000 -c 2 -i 27 -a 2 -x {0.0 3.0 27 ------- null}
+ -t 0.332 -s 0 -d 2 -p cbr -e 1000 -c 2 -i 29 -a 2 -x {0.0 3.0 29 ------- null}
- -t 0.332 -s 0 -d 2 -p cbr -e 1000 -c 2 -i 29 -a 2 -x {0.0 3.0 29 ------- null}
h -t 0.332 -s 0 -d 2 -p cbr -e 1000 -c 2 -i 29 -a 2 -x {0.0 3.0 -1 ------- null}
r -t 0.33708 -s 0 -d 2 -p cbr -e 1000 -c 2 -i 29 -a 2 -x {0.0 3.0 29 ------- null}
+ -t 0.33708 -s 2 -d 3 -p cbr -e 1000 -c 2 -i 29 -a 2 -x {0.0 3.0 29 ------- null}
- -t 0.33708 -s 2 -d 3 -p cbr -e 1000 -c 2 -i 29 -a 2 -x {0.0 3.0 29 ------- null}
h -t 0.33708 -s 2 -d 3 -p cbr -e 1000 -c 2 -i 29 -a 2 -x {0.0 3.0 -1 ------- null}
r -t 0.339228148148148 -s 2 -d 3 -p cbr -e 1000 -c 2 -i 28 -a 2 -x {0.0 3.0 28 ------- null}
+ -t 0.34 -s 0 -d 2 -p cbr -e 1000 -c 2 -i 30 -a 2 -x {0.0 3.0 30 ------- null}
- -t 0.34 -s 0 -d 2 -p cbr -e 1000 -c 2 -i 30 -a 2 -x {0.0 3.0 30 ------- null}
h -t 0.34 -s 0 -d 2 -p cbr -e 1000 -c 2 -i 30 -a 2 -x {0.0 3.0 -1 ------- null}
r -t 0.34508 -s 0 -d 2 -p cbr -e 1000 -c 2 -i 30 -a 2 -x {0.0 3.0 30 ------- null}
+ -t 0.34508 -s 2 -d 3 -p cbr -e 1000 -c 2 -i 30 -a 2 -x {0.0 3.0 30 ------- null}
- -t 0.34508 -s 2 -d 3 -p cbr -e 1000 -c 2 -i 30 -a 2 -x {0.0 3.0 30 ------- null}
h -t 0.34508 -s 2 -d 3 -p cbr -e 1000 -c 2 -i 30 -a 2 -x {0.0 3.0 -1 ------- null}
r -t 0.347228148148148 -s 2 -d 3 -p cbr -e 1000 -c 2 -i 29 -a 2 -x {0.0 3.0 29 ------- null}
+ -t 0.348 -s 0 -d 2 -p cbr -e 1000 -c 2 -i 31 -a 2 -x {0.0 3.0 31 ------- null}
- -t 0.348 -s 0 -d 2 -p cbr -e 1000 -c 2 -i 31 -a 2 -x {0.0 3.0 31 ------- null}
h -t 0.348 -s 0 -d 2 -p cbr -e 1000 -c 2 -i 31 -a 2 -x {0.0 3.0 -1 ------- null}
r -t 0.35308 -s 0 -d 2 -p cbr -e 1000 -c 2 -i 31 -a 2 -x {0.0 3.0 31 ------- null}
+ -t 0.35308 -s 2 -d 3 -p cbr -e 1000 -c 2 -i 31 -a 2 -x {0.0 3.0 31 ------- null}
- -t 0.35308 -s 2 -d 3 -p cbr -e 1000 -c 2 -i 31 -a 2 -x {0.0 3.0 31 ------- null}
h -t 0.35308 -s 2 -d 3 -p cbr -e 1000 -c 2 -i 31 -a 2 -x {0.0 3.0 -1 ------- null}
r -t 0.355228148148148 -s 2 -d 3 -p cbr -e 1000 -c 2 -i 30 -a 2 -x {0.0 3.0 30 ------- null}
+ -t 0.356 -s 0 -d 2 -p cbr -e 1000 -c 2 -i 32 -a 2 -x {0.0 3.0 32 ------- null}
- -t 0.356 -s 0 -d 2 -p cbr -e 1000 -c 2 -i 32 -a 2 -x {0.0 3.0 32 ------- null}
h -t 0.356 -s 0 -d 2 -p cbr -e 1000 -c 2 -i 32 -a 2 -x {0.0 3.0 -1 ------- null}
r -t 0.36108 -s 0 -d 2 -p cbr -e 1000 -c 2 -i 32 -a 2 -x {0.0 3.0 32 ------- null}
+ -t 0.36108 -s 2 -d 3 -p cbr -e 1000 -c 2 -i 32 -a 2 -x {0.0 3.0 32 ------- null}
- -t 0.36108 -s 2 -d 3 -p cbr -e 1000 -c 2 -i 32 -a 2 -x {0.0 3.0 32 ------- null}
h -t 0.36108 -s 2 -d 3 -p cbr -e 1000 -c 2 -i 32 -a 2 -x {0.0 3.0 -1 ------- null}
r -t 0.363228148148148 -s 2 -d 3 -p cbr -e 1000 -c 2 -i 31 -a 2 -x {0.0 3.0 31 ------- null}
+ -t 0.364 -s 0 -d 2 -p cbr -e 1000 -c 2 -i 33 -a 2 -x {0.0 3.0 33 ------- null}
- -t 0.364 -s 0 -d 2 -p cbr -e 1000 -c 2 -i 33 -a 2 -x {0.0 3.0 33 ------- null}
h -t 0.364 -s 0 -d 2 -p cbr -e 1000 -c 2 -i 33 -a 2 -x {0.0 3.0 -1 ------- null}
r -t 0.36908 -s 0 -d 2 -p cbr -e 1000 -c 2 -i 33 -a 2 -x {0.0 3.0 33 ------- null}
+ -t 0.36908 -s 2 -d 3 -p cbr -e 1000 -c 2 -i 33 -a 2 -x {0.0 3.0 33 ------- null}
- -t 0.36908 -s 2 -d 3 -p cbr -e 1000 -c 2 -i 33 -a 2 -x {0.0 3.0 33 ------- null}
h -t 0.36908 -s 2 -d 3 -p cbr -e 1000 -c 2 -i 33 -a 2 -x {0.0 3.0 -1 ------- null}
r -t 0.371228148148148 -s 2 -d 3 -p cbr -e 1000 -c 2 -i 32 -a 2 -x {0.0 3.0 32 ------- null}
+ -t 0.372 -s 0 -d 2 -p cbr -e 1000 -c 2 -i 34 -a 2 -x {0.0 3.0 34 ------- null}
- -t 0.372 -s 0 -d 2 -p cbr -e 1000 -c 2 -i 34 -a 2 -x {0.0 3.0 34 ------- null}
h -t 0.372 -s 0 -d 2 -p cbr -e 1000 -c 2 -i 34 -a 2 -x {0.0 3.0 -1 ------- null}
r -t 0.37708 -s 0 -d 2 -p cbr -e 1000 -c 2 -i 34 -a 2 -x {0.0 3.0 34 ------- null}
+ -t 0.37708 -s 2 -d 3 -p cbr -e 1000 -c 2 -i 34 -a 2 -x {0.0 3.0 34 ------- null}
- -t 0.37708 -s 2 -d 3 -p cbr -e 1000 -c 2 -i 34 -a 2 -x {0.0 3.0 34 ------- null}
h -t 0.37708 -s 2 -d 3 -p cbr -e 1000 -c 2 -i 34 -a 2 -x {0.0 3.0 -1 ------- null}
r -t 0.379228148148148 -s 2 -d 3 -p cbr -e 1000 -c 2 -i 33 -a 2 -x {0.0 3.0 33 ------- null}
+ -t 0.38 -s 0 -d 2 -p cbr -e 1000 -c 2 -i 35 -a 2 -x {0.0 3.0 35 ------- null}
- -t 0.38 -s 0 -d 2 -p cbr -e 1000 -c 2 -i 35 -a 2 -x {0.0 3.0 35 ------- null}
h -t 0.38 -s 0 -d 2 -p cbr -e 1000 -c 2 -i 35 -a 2 -x {0.0 3.0 -1 ------- null}
r -t 0.38508 -s 0 -d 2 -p cbr -e 1000 -c 2 -i 35 -a 2 -x {0.0 3.0 35 ------- null}
+ -t 0.38508 -s 2 -d 3 -p cbr -e 1000 -c 2 -i 35 -a 2 -x {0.0 3.0 35 ------- null}
- -t 0.38508 -s 2 -d 3 -p cbr -e 1000 -c 2 -i 35 -a 2 -x {0.0 3.0 35 ------- null}
h -t 0.38508 -s 2 -d 3 -p cbr -e 1000 -c 2 -i 35 -a 2 -x {0.0 3.0 -1 ------- null}
r -t 0.387228148148148 -s 2 -d 3 -p cbr -e 1000 -c 2 -i 34 -a 2 -x {0.0 3.0 34 ------- null}
+ -t 0.388 -s 0 -d 2 -p cbr -e 1000 -c 2 -i 36 -a 2 -x {0.0 3.0 36 ------- null}
- -t 0.388 -s 0 -d 2 -p cbr -e 1000 -c 2 -i 36 -a 2 -x {0.0 3.0 36 ------- null}
h -t 0.388 -s 0 -d 2 -p cbr -e 1000 -c 2 -i 36 -a 2 -x {0.0 3.0 -1 ------- null}
r -t 0.39308 -s 0 -d 2 -p cbr -e 1000 -c 2 -i 36 -a 2 -x {0.0 3.0 36 ------- null}
+ -t 0.39308 -s 2 -d 3 -p cbr -e 1000 -c 2 -i 36 -a 2 -x {0.0 3.0 36 ------- null}
- -t 0.39308 -s 2 -d 3 -p cbr -e 1000 -c 2 -i 36 -a 2 -x {0.0 3.0 36 ------- null}
h -t 0.39308 -s 2 -d 3 -p cbr -e 1000 -c 2 -i 36 -a 2 -x {0.0 3.0 -1 ------- null}
r -t 0.395228148148148 -s 2 -d 3 -p cbr -e 1000 -c 2 -i 35 -a 2 -x {0.0 3.0 35 ------- null}
+ -t 0.396 -s 0 -d 2 -p cbr -e 1000 -c 2 -i 37 -a 2 -x {0.0 3.0 37 ------- null}
- -t 0.396 -s 0 -d 2 -p cbr -e 1000 -c 2 -i 37 -a 2 -x {0.0 3.0 37 ------- null}
h -t 0.396 -s 0 -d 2 -p cbr -e 1000 -c 2 -i 37 -a 2 -x {0.0 3.0 -1 ------- null}
r -t 0.40108 -s 0 -d 2 -p cbr -e 1000 -c 2 -i 37 -a 2 -x {0.0 3.0 37 ------- null}
+ -t 0.40108 -s 2 -d 3 -p cbr -e 1000 -c 2 -i 37 -a 2 -x {0.0 3.0 37 ------- null}
- -t 0.40108 -s 2 -d 3 -p cbr -e 1000 -c 2 -i 37 -a 2 -x {0.0 3.0 37 ------- null}
h -t 0.40108 -s 2 -d 3 -p cbr -e 1000 -c 2 -i 37 -a 2 -x {0.0 3.0 -1 ------- null}
r -t 0.403228148148148 -s 2 -d 3 -p cbr -e 1000 -c 2 -i 36 -a 2 -x {0.0 3.0 36 ------- null}
+ -t 0.404 -s 0 -d 2 -p cbr -e 1000 -c 2 -i 38 -a 2 -x {0.0 3.0 38 ------- null}
- -t 0.404 -s 0 -d 2 -p cbr -e 1000 -c 2 -i 38 -a 2 -x {0.0 3.0 38 ------- null}
h -t 0.404 -s 0 -d 2 -p cbr -e 1000 -c 2 -i 38 -a 2 -x {0.0 3.0 -1 ------- null}
r -t 0.40908 -s 0 -d 2 -p cbr -e 1000 -c 2 -i 38 -a 2 -x {0.0 3.0 38 ------- null}
+ -t 0.40908 -s 2 -d 3 -p cbr -e 1000 -c 2 -i 38 -a 2 -x {0.0 3.0 38 ------- null}
- -t 0.40908 -s 2 -d 3 -p cbr -e 1000 -c 2 -i 38 -a 2 -x {0.0 3.0 38 ------- null}
h -t 0.40908 -s 2 -d 3 -p cbr -e 1000 -c 2 -i 38 -a 2 -x {0.0 3.0 -1 ------- null}
r -t 0.411228148148148 -s 2 -d 3 -p cbr -e 1000 -c 2 -i 37 -a 2 -x {0.0 3.0 37 ------- null}
+ -t 0.412 -s 0 -d 2 -p cbr -e 1000 -c 2 -i 39 -a 2 -x {0.0 3.0 39 ------- null}
- -t 0.412 -s 0 -d 2 -p cbr -e 1000 -c 2 -i 39 -a 2 -x {0.0 3.0 39 ------- null}
h -t 0.412 -s 0 -d 2 -p cbr -e 1000 -c 2 -i 39 -a 2 -x {0.0 3.0 -1 ------- null}
r -t 0.41708 -s 0 -d 2 -p cbr -e 1000 -c 2 -i 39 -a 2 -x {0.0 3.0 39 ------- null}
+ -t 0.41708 -s 2 -d 3 -p cbr -e 1000 -c 2 -i 39 -a 2 -x {0.0 3.0 39 ------- null}
- -t 0.41708 -s 2 -d 3 -p cbr -e 1000 -c 2 -i 39 -a 2 -x {0.0 3.0 39 ------- null}
h -t 0.41708 -s 2 -d 3 -p cbr -e 1000 -c 2 -i 39 -a 2 -x {0.0 3.0 -1 ------- null}
r -t 0.419228148148148 -s 2 -d 3 -p cbr -e 1000 -c 2 -i 38 -a 2 -x {0.0 3.0 38 ------- null}
+ -t 0.42 -s 0 -d 2 -p cbr -e 1000 -c 2 -i 40 -a 2 -x {0.0 3.0 40 ------- null}
- -t 0.42 -s 0 -d 2 -p cbr -e 1000 -c 2 -i 40 -a 2 -x {0.0 3.0 40 ------- null}
h -t 0.42 -s 0 -d 2 -p cbr -e 1000 -c 2 -i 40 -a 2 -x {0.0 3.0 -1 ------- null}
r -t 0.42508 -s 0 -d 2 -p cbr -e 1000 -c 2 -i 40 -a 2 -x {0.0 3.0 40 ------- null}
+ -t 0.42508 -s 2 -d 3 -p cbr -e 1000 -c 2 -i 40 -a 2 -x {0.0 3.0 40 ------- null}
- -t 0.42508 -s 2 -d 3 -p cbr -e 1000 -c 2 -i 40 -a 2 -x {0.0 3.0 40 ------- null}
h -t 0.42508 -s 2 -d 3 -p cbr -e 1000 -c 2 -i 40 -a 2 -x {0.0 3.0 -1 ------- null}
r -t 0.427228148148148 -s 2 -d 3 -p cbr -e 1000 -c 2 -i 39 -a 2 -x {0.0 3.0 39 ------- null}
+ -t 0.428 -s 0 -d 2 -p cbr -e 1000 -c 2 -i 41 -a 2 -x {0.0 3.0 41 ------- null}
- -t 0.428 -s 0 -d 2 -p cbr -e 1000 -c 2 -i 41 -a 2 -x {0.0 3.0 41 ------- null}
h -t 0.428 -s 0 -d 2 -p cbr -e 1000 -c 2 -i 41 -a 2 -x {0.0 3.0 -1 ------- null}
r -t 0.43308 -s 0 -d 2 -p cbr -e 1000 -c 2 -i 41 -a 2 -x {0.0 3.0 41 ------- null}
+ -t 0.43308 -s 2 -d 3 -p cbr -e 1000 -c 2 -i 41 -a 2 -x {0.0 3.0 41 ------- null}
- -t 0.43308 -s 2 -d 3 -p cbr -e 1000 -c 2 -i 41 -a 2 -x {0.0 3.0 41 ------- null}
h -t 0.43308 -s 2 -d 3 -p cbr -e 1000 -c 2 -i 41 -a 2 -x {0.0 3.0 -1 ------- null}
r -t 0.435228148148148 -s 2 -d 3 -p cbr -e 1000 -c 2 -i 40 -a 2 -x {0.0 3.0 40 ------- null}
+ -t 0.436 -s 0 -d 2 -p cbr -e 1000 -c 2 -i 42 -a 2 -x {0.0 3.0 42 ------- null}
- -t 0.436 -s 0 -d 2 -p cbr -e 1000 -c 2 -i 42 -a 2 -x {0.0 3.0 42 ------- null}
h -t 0.436 -s 0 -d 2 -p cbr -e 1000 -c 2 -i 42 -a 2 -x {0.0 3.0 -1 ------- null}
r -t 0.44108 -s 0 -d 2 -p cbr -e 1000 -c 2 -i 42 -a 2 -x {0.0 3.0 42 ------- null}
+ -t 0.44108 -s 2 -d 3 -p cbr -e 1000 -c 2 -i 42 -a 2 -x {0.0 3.0 42 ------- null}
- -t 0.44108 -s 2 -d 3 -p cbr -e 1000 -c 2 -i 42 -a 2 -x {0.0 3.0 42 ------- null}
h -t 0.44108 -s 2 -d 3 -p cbr -e 1000 -c 2 -i 42 -a 2 -x {0.0 3.0 -1 ------- null}
r -t 0.443228148148148 -s 2 -d 3 -p cbr -e 1000 -c 2 -i 41 -a 2 -x {0.0 3.0 41 ------- null}
+ -t 0.444 -s 0 -d 2 -p cbr -e 1000 -c 2 -i 43 -a 2 -x {0.0 3.0 43 ------- null}
- -t 0.444 -s 0 -d 2 -p cbr -e 1000 -c 2 -i 43 -a 2 -x {0.0 3.0 43 ------- null}
h -t 0.444 -s 0 -d 2 -p cbr -e 1000 -c 2 -i 43 -a 2 -x {0.0 3.0 -1 ------- null}
r -t 0.44908 -s 0 -d 2 -p cbr -e 1000 -c 2 -i 43 -a 2 -x {0.0 3.0 43 ------- null}
+ -t 0.44908 -s 2 -d 3 -p cbr -e 1000 -c 2 -i 43 -a 2 -x {0.0 3.0 43 ------- null}
- -t 0.44908 -s 2 -d 3 -p cbr -e 1000 -c 2 -i 43 -a 2 -x {0.0 3.0 43 ------- null}
h -t 0.44908 -s 2 -d 3 -p cbr -e 1000 -c 2 -i 43 -a 2 -x {0.0 3.0 -1 ------- null}
r -t 0.451228148148148 -s 2 -d 3 -p cbr -e 1000 -c 2 -i 42 -a 2 -x {0.0 3.0 42 ------- null}