+ 0.1 0 2 cbr 1000 ------- 2 0.0 3.0 0 0
- 0.1 0 2 cbr 1000 ------- 2 0.0 3.0 0 0
r 0.10508 0 2 cbr 1000 ------- 2 0.0 3.0 0 0
+ 0.10508 2 3 cbr 1000 ------- 2 0.0 3.0 0 0
- 0.10508 2 3 cbr 1000 ------- 2 0.0 3.0 0 0
+ 0.108 0 2 cbr 1000 ------- 2 0.0 3.0 1 1
- 0.108 0 2 cbr 1000 ------- 2 0.0 3.0 1 1
r 0.11308 0 2 cbr 1000 ------- 2 0.0 3.0 1 1
+ 0.11308 2 3 cbr 1000 ------- 2 0.0 3.0 1 1
- 0.11308 2 3 cbr 1000 ------- 2 0.0 3.0 1 1
r 0.115228 2 3 cbr 1000 ------- 2 0.0 3.0 0 0
+ 0.116 0 2 cbr 1000 ------- 2 0.0 3.0 2 2
- 0.116 0 2 cbr 1000 ------- 2 0.0 3.0 2 2
r 0.12108 0 2 cbr 1000 ------- 2 0.0 3.0 2 2
+ 0.12108 2 3 cbr 1000 ------- 2 0.0 3.0 2 2
- 0.12108 2 3 cbr 1000 ------- 2 0.0 3.0 2 2
r 0.123228 2 3 cbr 1000 ------- 2 0.0 3.0 1 1
+ 0.124 0 2 cbr 1000 ------- 2 0.0 3.0 3 3
- 0.124 0 2 cbr 1000 ------- 2 0.0 3.0 3 3
r 0.12908 0 2 cbr 1000 ------- 2 0.0 3.0 3 3
+ 0.12908 2 3 cbr 1000 ------- 2 0.0 3.0 3 3
- 0.12908 2 3 cbr 1000 ------- 2 0.0 3.0 3 3
r 0.131228 2 3 cbr 1000 ------- 2 0.0 3.0 2 2
+ 0.132 0 2 cbr 1000 ------- 2 0.0 3.0 4 4
- 0.132 0 2 cbr 1000 ------- 2 0.0 3.0 4 4
r 0.13708 0 2 cbr 1000 ------- 2 0.0 3.0 4 4
+ 0.13708 2 3 cbr 1000 ------- 2 0.0 3.0 4 4
- 0.13708 2 3 cbr 1000 ------- 2 0.0 3.0 4 4
r 0.139228 2 3 cbr 1000 ------- 2 0.0 3.0 3 3
+ 0.14 0 2 cbr 1000 ------- 2 0.0 3.0 5 5
- 0.14 0 2 cbr 1000 ------- 2 0.0 3.0 5 5
r 0.14508 0 2 cbr 1000 ------- 2 0.0 3.0 5 5
+ 0.14508 2 3 cbr 1000 ------- 2 0.0 3.0 5 5
- 0.14508 2 3 cbr 1000 ------- 2 0.0 3.0 5 5
r 0.147228 2 3 cbr 1000 ------- 2 0.0 3.0 4 4
+ 0.148 0 2 cbr 1000 ------- 2 0.0 3.0 6 6
- 0.148 0 2 cbr 1000 ------- 2 0.0 3.0 6 6
r 0.15308 0 2 cbr 1000 ------- 2 0.0 3.0 6 6
+ 0.15308 2 3 cbr 1000 ------- 2 0.0 3.0 6 6
- 0.15308 2 3 cbr 1000 ------- 2 0.0 3.0 6 6
r 0.155228 2 3 cbr 1000 ------- 2 0.0 3.0 5 5
+ 0.156 0 2 cbr 1000 ------- 2 0.0 3.0 7 7
- 0.156 0 2 cbr 1000 ------- 2 0.0 3.0 7 7
r 0.16108 0 2 cbr 1000 ------- 2 0.0 3.0 7 7
+ 0.16108 2 3 cbr 1000 ------- 2 0.0 3.0 7 7
- 0.16108 2 3 cbr 1000 ------- 2 0.0 3.0 7 7
r 0.163228 2 3 cbr 1000 ------- 2 0.0 3.0 6 6
+ 0.164 0 2 cbr 1000 ------- 2 0.0 3.0 8 8
- 0.164 0 2 cbr 1000 ------- 2 0.0 3.0 8 8
r 0.16908 0 2 cbr 1000 ------- 2 0.0 3.0 8 8
+ 0.16908 2 3 cbr 1000 ------- 2 0.0 3.0 8 8
- 0.16908 2 3 cbr 1000 ------- 2 0.0 3.0 8 8
r 0.171228 2 3 cbr 1000 ------- 2 0.0 3.0 7 7
+ 0.172 0 2 cbr 1000 ------- 2 0.0 3.0 9 9
- 0.172 0 2 cbr 1000 ------- 2 0.0 3.0 9 9
r 0.17708 0 2 cbr 1000 ------- 2 0.0 3.0 9 9
+ 0.17708 2 3 cbr 1000 ------- 2 0.0 3.0 9 9
- 0.17708 2 3 cbr 1000 ------- 2 0.0 3.0 9 9
r 0.179228 2 3 cbr 1000 ------- 2 0.0 3.0 8 8
+ 0.18 0 2 cbr 1000 ------- 2 0.0 3.0 10 10
- 0.18 0 2 cbr 1000 ------- 2 0.0 3.0 10 10
r 0.18508 0 2 cbr 1000 ------- 2 0.0 3.0 10 10
+ 0.18508 2 3 cbr 1000 ------- 2 0.0 3.0 10 10
- 0.18508 2 3 cbr 1000 ------- 2 0.0 3.0 10 10
r 0.187228 2 3 cbr 1000 ------- 2 0.0 3.0 9 9
+ 0.188 0 2 cbr 1000 ------- 2 0.0 3.0 11 11
- 0.188 0 2 cbr 1000 ------- 2 0.0 3.0 11 11
r 0.19308 0 2 cbr 1000 ------- 2 0.0 3.0 11 11
+ 0.19308 2 3 cbr 1000 ------- 2 0.0 3.0 11 11
- 0.19308 2 3 cbr 1000 ------- 2 0.0 3.0 11 11
r 0.195228 2 3 cbr 1000 ------- 2 0.0 3.0 10 10
+ 0.196 0 2 cbr 1000 ------- 2 0.0 3.0 12 12
- 0.196 0 2 cbr 1000 ------- 2 0.0 3.0 12 12
r 0.20108 0 2 cbr 1000 ------- 2 0.0 3.0 12 12
+ 0.20108 2 3 cbr 1000 ------- 2 0.0 3.0 12 12
- 0.20108 2 3 cbr 1000 ------- 2 0.0 3.0 12 12
r 0.203228 2 3 cbr 1000 ------- 2 0.0 3.0 11 11
+ 0.204 0 2 cbr 1000 ------- 2 0.0 3.0 13 13
- 0.204 0 2 cbr 1000 ------- 2 0.0 3.0 13 13
r 0.20908 0 2 cbr 1000 ------- 2 0.0 3.0 13 13
+ 0.20908 2 3 cbr 1000 ------- 2 0.0 3.0 13 13
- 0.20908 2 3 cbr 1000 ------- 2 0.0 3.0 13 13
r 0.211228 2 3 cbr 1000 ------- 2 0.0 3.0 12 12
+ 0.212 0 2 cbr 1000 ------- 2 0.0 3.0 14 14
- 0.212 0 2 cbr 1000 ------- 2 0.0 3.0 14 14
r 0.21708 0 2 cbr 1000 ------- 2 0.0 3.0 14 14
+ 0.21708 2 3 cbr 1000 ------- 2 0.0 3.0 14 14
- 0.21708 2 3 cbr 1000 ------- 2 0.0 3.0 14 14
r 0.219228 2 3 cbr 1000 ------- 2 0.0 3.0 13 13
+ 0.22 0 2 cbr 1000 ------- 2 0.0 3.0 15 15
- 0.22 0 2 cbr 1000 ------- 2 0.0 3.0 15 15
r 0.22508 0 2 cbr 1000 ------- 2 0.0 3.0 15 15
+ 0.22508 2 3 cbr 1000 ------- 2 0.0 3.0 15 15
- 0.22508 2 3 cbr 1000 ------- 2 0.0 3.0 15 15
r 0.227228 2 3 cbr 1000 ------- 2 0.0 3.0 14 14
+ 0.228 0 2 cbr 1000 ------- 2 0.0 3.0 16 16
- 0.228 0 2 cbr 1000 ------- 2 0.0 3.0 16 16
r 0.23308 0 2 cbr 1000 ------- 2 0.0 3.0 16 16
+ 0.23308 2 3 cbr 1000 ------- 2 0.0 3.0 16 16
- 0.23308 2 3 cbr 1000 ------- 2 0.0 3.0 16 16
r 0.235228 2 3 cbr 1000 ------- 2 0.0 3.0 15 15
+ 0.236 0 2 cbr 1000 ------- 2 0.0 3.0 17 17
- 0.236 0 2 cbr 1000 ------- 2 0.0 3.0 17 17
r 0.24108 0 2 cbr 1000 ------- 2 0.0 3.0 17 17
+ 0.24108 2 3 cbr 1000 ------- 2 0.0 3.0 17 17
- 0.24108 2 3 cbr 1000 ------- 2 0.0 3.0 17 17
r 0.243228 2 3 cbr 1000 ------- 2 0.0 3.0 16 16
+ 0.244 0 2 cbr 1000 ------- 2 0.0 3.0 18 18
- 0.244 0 2 cbr 1000 ------- 2 0.0 3.0 18 18
r 0.24908 0 2 cbr 1000 ------- 2 0.0 3.0 18 18
+ 0.24908 2 3 cbr 1000 ------- 2 0.0 3.0 18 18
- 0.24908 2 3 cbr 1000 ------- 2 0.0 3.0 18 18
r 0.251228 2 3 cbr 1000 ------- 2 0.0 3.0 17 17
+ 0.252 0 2 cbr 1000 ------- 2 0.0 3.0 19 19
- 0.252 0 2 cbr 1000 ------- 2 0.0 3.0 19 19
r 0.25708 0 2 cbr 1000 ------- 2 0.0 3.0 19 19
+ 0.25708 2 3 cbr 1000 ------- 2 0.0 3.0 19 19
- 0.25708 2 3 cbr 1000 ------- 2 0.0 3.0 19 19
r 0.259228 2 3 cbr 1000 ------- 2 0.0 3.0 18 18
+ 0.26 0 2 cbr 1000 ------- 2 0.0 3.0 20 20
- 0.26 0 2 cbr 1000 ------- 2 0.0 3.0 20 20
r 0.26508 0 2 cbr 1000 ------- 2 0.0 3.0 20 20
+ 0.26508 2 3 cbr 1000 ------- 2 0.0 3.0 20 20
- 0.26508 2 3 cbr 1000 ------- 2 0.0 3.0 20 20
r 0.267228 2 3 cbr 1000 ------- 2 0.0 3.0 19 19
+ 0.268 0 2 cbr 1000 ------- 2 0.0 3.0 21 21
- 0.268 0 2 cbr 1000 ------- 2 0.0 3.0 21 21
r 0.27308 0 2 cbr 1000 ------- 2 0.0 3.0 21 21
+ 0.27308 2 3 cbr 1000 ------- 2 0.0 3.0 21 21
- 0.27308 2 3 cbr 1000 ------- 2 0.0 3.0 21 21
r 0.275228 2 3 cbr 1000 ------- 2 0.0 3.0 20 20
+ 0.276 0 2 cbr 1000 ------- 2 0.0 3.0 22 22
- 0.276 0 2 cbr 1000 ------- 2 0.0 3.0 22 22
r 0.28108 0 2 cbr 1000 ------- 2 0.0 3.0 22 22
+ 0.28108 2 3 cbr 1000 ------- 2 0.0 3.0 22 22
- 0.28108 2 3 cbr 1000 ------- 2 0.0 3.0 22 22
r 0.283228 2 3 cbr 1000 ------- 2 0.0 3.0 21 21
+ 0.284 0 2 cbr 1000 ------- 2 0.0 3.0 23 23
- 0.284 0 2 cbr 1000 ------- 2 0.0 3.0 23 23
r 0.28908 0 2 cbr 1000 ------- 2 0.0 3.0 23 23
+ 0.28908 2 3 cbr 1000 ------- 2 0.0 3.0 23 23
- 0.28908 2 3 cbr 1000 ------- 2 0.0 3.0 23 23
r 0.291228 2 3 cbr 1000 ------- 2 0.0 3.0 22 22
+ 0.292 0 2 cbr 1000 ------- 2 0.0 3.0 24 24
- 0.292 0 2 cbr 1000 ------- 2 0.0 3.0 24 24
r 0.29708 0 2 cbr 1000 ------- 2 0.0 3.0 24 24
+ 0.29708 2 3 cbr 1000 ------- 2 0.0 3.0 24 24
- 0.29708 2 3 cbr 1000 ------- 2 0.0 3.0 24 24
r 0.299228 2 3 cbr 1000 ------- 2 0.0 3.0 23 23
+ 0.3 0 2 cbr 1000 ------- 2 0.0 3.0 25 25
- 0.3 0 2 cbr 1000 ------- 2 0.0 3.0 25 25
r 0.30508 0 2 cbr 1000 ------- 2 0.0 3.0 25 25
+ 0.30508 2 3 cbr 1000 ------- 2 0.0 3.0 25 25
- 0.30508 2 3 cbr 1000 ------- 2 0.0 3.0 25 25
r 0.307228 2 3 cbr 1000 ------- 2 0.0 3.0 24 24
+ 0.308 0 2 cbr 1000 ------- 2 0.0 3.0 26 26
- 0.308 0 2 cbr 1000 ------- 2 0.0 3.0 26 26
r 0.31308 0 2 cbr 1000 ------- 2 0.0 3.0 26 26
+ 0.31308 2 3 cbr 1000 ------- 2 0.0 3.0 26 26
- 0.31308 2 3 cbr 1000 ------- 2 0.0 3.0 26 26
r 0.315228 2 3 cbr 1000 ------- 2 0.0 3.0 25 25
+ 0.316 0 2 cbr 1000 ------- 2 0.0 3.0 27 27
- 0.316 0 2 cbr 1000 ------- 2 0.0 3.0 27 27
r 0.32108 0 2 cbr 1000 ------- 2 0.0 3.0 27 27
+ 0.32108 2 3 cbr 1000 ------- 2 0.0 3.0 27 27
- 0.32108 2 3 cbr 1000 ------- 2 0.0 3.0 27 27
r 0.323228 2 3 cbr 1000 ------- 2 0.0 3.0 26 26
+ 0.324 0 2 cbr 1000 ------- 2 0.0 3.0 28 28
- 0.324 0 2 cbr 1000 ------- 2 0.0 3.0 28 28
r 0.32908 0 2 cbr 1000 ------- 2 0.0 3.0 28 28
+ 0.32908 2 3 cbr 1000 ------- 2 0.0 3.0 28 28
- 0.32908 2 3 cbr 1000 ------- 2 0.0 3.0 28 28
r 0.331228 2 3 cbr 1000 ------- 2 0.0 3.0 27 27
+ 0.332 0 2 cbr 1000 ------- 2 0.0 3.0 29 29
- 0.332 0 2 cbr 1000 ------- 2 0.0 3.0 29 29
r 0.33708 0 2 cbr 1000 ------- 2 0.0 3.0 29 29
+ 0.33708 2 3 cbr 1000 ------- 2 0.0 3.0 29 29
- 0.33708 2 3 cbr 1000 ------- 2 0.0 3.0 29 29
r 0.339228 2 3 cbr 1000 ------- 2 0.0 3.0 28 28
+ 0.34 0 2 cbr 1000 ------- 2 0.0 3.0 30 30
- 0.34 0 2 cbr 1000 ------- 2 0.0 3.0 30 30
r 0.34508 0 2 cbr 1000 ------- 2 0.0 3.0 30 30
+ 0.34508 2 3 cbr 1000 ------- 2 0.0 3.0 30 30
- 0.34508 2 3 cbr 1000 ------- 2 0.0 3.0 30 30
r 0.347228 2 3 cbr 1000 ------- 2 0.0 3.0 29 29
+ 0.348 0 2 cbr 1000 ------- 2 0.0 3.0 31 31
- 0.348 0 2 cbr 1000 ------- 2 0.0 3.0 31 31
r 0.35308 0 2 cbr 1000 ------- 2 0.0 3.0 31 31
+ 0.35308 2 3 cbr 1000 ------- 2 0.0 3.0 31 31
- 0.35308 2 3 cbr 1000 ------- 2 0.0 3.0 31 31
r 0.355228 2 3 cbr 1000 ------- 2 0.0 3.0 30 30
+ 0.356 0 2 cbr 1000 ------- 2 0.0 3.0 32 32
- 0.356 0 2 cbr 1000 ------- 2 0.0 3.0 32 32
r 0.36108 0 2 cbr 1000 ------- 2 0.0 3.0 32 32
+ 0.36108 2 3 cbr 1000 ------- 2 0.0 3.0 32 32
- 0.36108 2 3 cbr 1000 ------- 2 0.0 3.0 32 32
r 0.363228 2 3 cbr 1000 ------- 2 0.0 3.0 31 31
+ 0.364 0 2 cbr 1000 ------- 2 0.0 3.0 33 33
- 0.364 0 2 cbr 1000 ------- 2 0.0 3.0 33 33
r 0.36908 0 2 cbr 1000 ------- 2 0.0 3.0 33 33
+ 0.36908 2 3 cbr 1000 ------- 2 0.0 3.0 33 33
- 0.36908 2 3 cbr 1000 ------- 2 0.0 3.0 33 33
r 0.371228 2 3 cbr 1000 ------- 2 0.0 3.0 32 32
+ 0.372 0 2 cbr 1000 ------- 2 0.0 3.0 34 34
- 0.372 0 2 cbr 1000 ------- 2 0.0 3.0 34 34
r 0.37708 0 2 cbr 1000 ------- 2 0.0 3.0 34 34
+ 0.37708 2 3 cbr 1000 ------- 2 0.0 3.0 34 34
- 0.37708 2 3 cbr 1000 ------- 2 0.0 3.0 34 34
r 0.379228 2 3 cbr 1000 ------- 2 0.0 3.0 33 33
+ 0.38 0 2 cbr 1000 ------- 2 0.0 3.0 35 35
- 0.38 0 2 cbr 1000 ------- 2 0.0 3.0 35 35
r 0.38508 0 2 cbr 1000 ------- 2 0.0 3.0 35 35
+ 0.38508 2 3 cbr 1000 ------- 2 0.0 3.0 35 35
- 0.38508 2 3 cbr 1000 ------- 2 0.0 3.0 35 35
r 0.387228 2 3 cbr 1000 ------- 2 0.0 3.0 34 34
+ 0.388 0 2 cbr 1000 ------- 2 0.0 3.0 36 36
- 0.388 0 2 cbr 1000 ------- 2 0.0 3.0 36 36
r 0.39308 0 2 cbr 1000 ------- 2 0.0 3.0 36 36
+ 0.39308 2 3 cbr 1000 ------- 2 0.0 3.0 36 36
- 0.39308 2 3 cbr 1000 ------- 2 0.0 3.0 36 36
r 0.395228 2 3 cbr 1000 ------- 2 0.0 3.0 35 35
+ 0.396 0 2 cbr 1000 ------- 2 0.0 3.0 37 37
- 0.396 0 2 cbr 1000 ------- 2 0.0 3.0 37 37
r 0.40108 0 2 cbr 1000 ------- 2 0.0 3.0 37 37
+ 0.40108 2 3 cbr 1000 ------- 2 0.0 3.0 37 37
- 0.40108 2 3 cbr 1000 ------- 2 0.0 3.0 37 37
r 0.403228 2 3 cbr 1000 ------- 2 0.0 3.0 36 36
+ 0.404 0 2 cbr 1000 ------- 2 0.0 3.0 38 38
- 0.404 0 2 cbr 1000 ------- 2 0.0 3.0 38 38
r 0.40908 0 2 cbr 1000 ------- 2 0.0 3.0 38 38
+ 0.40908 2 3 cbr 1000 ------- 2 0.0 3.0 38 38
- 0.40908 2 3 cbr 1000 ------- 2 0.0 3.0 38 38
r 0.411228 2 3 cbr 1000 ------- 2 0.0 3.0 37 37
+ 0.412 0 2 cbr 1000 ------- 2 0.0 3.0 39 39
- 0.412 0 2 cbr 1000 ------- 2 0.0 3.0 39 39
r 0.41708 0 2 cbr 1000 ------- 2 0.0 3.0 39 39
+ 0.41708 2 3 cbr 1000 ------- 2 0.0 3.0 39 39
- 0.41708 2 3 cbr 1000 ------- 2 0.0 3.0 39 39
r 0.419228 2 3 cbr 1000 ------- 2 0.0 3.0 38 38
+ 0.42 0 2 cbr 1000 ------- 2 0.0 3.0 40 40
- 0.42 0 2 cbr 1000 ------- 2 0.0 3.0 40 40
r 0.42508 0 2 cbr 1000 ------- 2 0.0 3.0 40 40
+ 0.42508 2 3 cbr 1000 ------- 2 0.0 3.0 40 40
- 0.42508 2 3 cbr 1000 ------- 2 0.0 3.0 40 40
r 0.427228 2 3 cbr 1000 ------- 2 0.0 3.0 39 39
+ 0.428 0 2 cbr 1000 ------- 2 0.0 3.0 41 41
- 0.428 0 2 cbr 1000 ------- 2 0.0 3.0 41 41
r 0.43308 0 2 cbr 1000 ------- 2 0.0 3.0 41 41
+ 0.43308 2 3 cbr 1000 ------- 2 0.0 3.0 41 41
- 0.43308 2 3 cbr 1000 ------- 2 0.0 3.0 41 41
r 0.435228 2 3 cbr 1000 ------- 2 0.0 3.0 40 40
+ 0.436 0 2 cbr 1000 ------- 2 0.0 3.0 42 42
- 0.436 0 2 cbr 1000 ------- 2 0.0 3.0 42 42
r 0.44108 0 2 cbr 1000 ------- 2 0.0 3.0 42 42
+ 0.44108 2 3 cbr 1000 ------- 2 0.0 3.0 42 42
- 0.44108 2 3 cbr 1000 ------- 2 0.0 3.0 42 42
r 0.443228 2 3 cbr 1000 ------- 2 0.0 3.0 41 41
+ 0.444 0 2 cbr 1000 ------- 2 0.0 3.0 43 43
- 0.444 0 2 cbr 1000 ------- 2 0.0 3.0 43 43
r 0.44908 0 2 cbr 1000 ------- 2 0.0 3.0 43 43
+ 0.44908 2 3 cbr 1000 ------- 2 0.0 3.0 43 43
- 0.44908 2 3 cbr 1000 ------- 2 0.0 3.0 43 43
r 0.451228 2 3 cbr 1000 ------- 2 0.0 3.0 42 42
+ 0.452 0 2 cbr 1000 ------- 2 0.0 3.0 44 44
- 0.452 0 2 cbr 1000 ------- 2 0.0 3.0 44 44
r 0.45708 0 2 cbr 1000 ------- 2 0.0 3.0 44 44
+ 0.45708 2 3 cbr 1000 ------- 2 0.0 3.0 44 44
- 0.45708 2 3 cbr 1000 ------- 2 0.0 3.0 44 44
r 0.459228 2 3 cbr 1000 ------- 2 0.0 3.0 43 43
+ 0.46 0 2 cbr 1000 ------- 2 0.0 3.0 45 45
- 0.46 0 2 cbr 1000 ------- 2 0.0 3.0 45 45
r 0.46508 0 2 cbr 1000 ------- 2 0.0 3.0 45 45
+ 0.46508 2 3 cbr 1000 ------- 2 0.0 3.0 45 45
- 0.46508 2 3 cbr 1000 ------- 2 0.0 3.0 45 45
r 0.467228 2 3 cbr 1000 ------- 2 0.0 3.0 44 44
+ 0.468 0 2 cbr 1000 ------- 2 0.0 3.0 46 46
- 0.468 0 2 cbr 1000 ------- 2 0.0 3.0 46 46
r 0.47308 0 2 cbr 1000 ------- 2 0.0 3.0 46 46
+ 0.47308 2 3 cbr 1000 ------- 2 0.0 3.0 46 46
- 0.47308 2 3 cbr 1000 ------- 2 0.0 3.0 46 46
r 0.475228 2 3 cbr 1000 ------- 2 0.0 3.0 45 45
+ 0.476 0 2 cbr 1000 ------- 2 0.0 3.0 47 47
- 0.476 0 2 cbr 1000 ------- 2 0.0 3.0 47 47
r 0.48108 0 2 cbr 1000 ------- 2 0.0 3.0 47 47
+ 0.48108 2 3 cbr 1000 ------- 2 0.0 3.0 47 47
- 0.48108 2 3 cbr 1000 ------- 2 0.0 3.0 47 47
r 0.483228 2 3 cbr 1000 ------- 2 0.0 3.0 46 46
+ 0.484 0 2 cbr 1000 ------- 2 0.0 3.0 48 48
- 0.484 0 2 cbr 1000 ------- 2 0.0 3.0 48 48
r 0.48908 0 2 cbr 1000 ------- 2 0.0 3.0 48 48
+ 0.48908 2 3 cbr 1000 ------- 2 0.0 3.0 48 48
- 0.48908 2 3 cbr 1000 ------- 2 0.0 3.0 48 48
r 0.491228 2 3 cbr 1000 ------- 2 0.0 3.0 47 47
+ 0.492 0 2 cbr 1000 ------- 2 0.0 3.0 49 49
- 0.492 0 2 cbr 1000 ------- 2 0.0 3.0 49 49
r 0.49708 0 2 cbr 1000 ------- 2 0.0 3.0 49 49
+ 0.49708 2 3 cbr 1000 ------- 2 0.0 3.0 49 49
- 0.49708 2 3 cbr 1000 ------- 2 0.0 3.0 49 49
r 0.499228 2 3 cbr 1000 ------- 2 0.0 3.0 48 48
+ 0.5 0 2 cbr 1000 ------- 2 0.0 3.0 50 50
- 0.5 0 2 cbr 1000 ------- 2 0.0 3.0 50 50
r 0.50508 0 2 cbr 1000 ------- 2 0.0 3.0 50 50
+ 0.50508 2 3 cbr 1000 ------- 2 0.0 3.0 50 50
- 0.50508 2 3 cbr 1000 ------- 2 0.0 3.0 50 50
r 0.507228 2 3 cbr 1000 ------- 2 0.0 3.0 49 49
+ 0.508 0 2 cbr 1000 ------- 2 0.0 3.0 51 51
- 0.508 0 2 cbr 1000 ------- 2 0.0 3.0 51 51
r 0.51308 0 2 cbr 1000 ------- 2 0.0 3.0 51 51
+ 0.51308 2 3 cbr 1000 ------- 2 0.0 3.0 51 51
- 0.51308 2 3 cbr 1000 ------- 2 0.0 3.0 51 51
r 0.515228 2 3 cbr 1000 ------- 2 0.0 3.0 50 50
+ 0.516 0 2 cbr 1000 ------- 2 0.0 3.0 52 52
- 0.516 0 2 cbr 1000 ------- 2 0.0 3.0 52 52
r 0.52108 0 2 cbr 1000 ------- 2 0.0 3.0 52 52
+ 0.52108 2 3 cbr 1000 ------- 2 0.0 3.0 52 52
- 0.52108 2 3 cbr 1000 ------- 2 0.0 3.0 52 52
r 0.523228 2 3 cbr 1000 ------- 2 0.0 3.0 51 51
+ 0.524 0 2 cbr 1000 ------- 2 0.0 3.0 53 53
- 0.524 0 2 cbr 1000 ------- 2 0.0 3.0 53 53
r 0.52908 0 2 cbr 1000 ------- 2 0.0 3.0 53 53
+ 0.52908 2 3 cbr 1000 ------- 2 0.0 3.0 53 53
- 0.52908 2 3 cbr 1000 ------- 2 0.0 3.0 53 53
r 0.531228 2 3 cbr 1000 ------- 2 0.0 3.0 52 52
+ 0.532 0 2 cbr 1000 ------- 2 0.0 3.0 54 54
- 0.532 0 2 cbr 1000 ------- 2 0.0 3.0 54 54
r 0.53708 0 2 cbr 1000 ------- 2 0.0 3.0 54 54
+ 0.53708 2 3 cbr 1000 ------- 2 0.0 3.0 54 54
- 0.53708 2 3 cbr 1000 ------- 2 0.0 3.0 54 54
r 0.539228 2 3 cbr 1000 ------- 2 0.0 3.0 53 53
+ 0.54 0 2 cbr 1000 ------- 2 0.0 3.0 55 55
- 0.54 0 2 cbr 1000 ------- 2 0.0 3.0 55 55
r 0.54508 0 2 cbr 1000 ------- 2 0.0 3.0 55 55
+ 0.54508 2 3 cbr 1000 ------- 2 0.0 3.0 55 55
- 0.54508 2 3 cbr 1000 ------- 2 0.0 3.0 55 55
r 0.547228 2 3 cbr 1000 ------- 2 0.0 3.0 54 54
+ 0.548 0 2 cbr 1000 ------- 2 0.0 3.0 56 56
- 0.548 0 2 cbr 1000 ------- 2 0.0 3.0 56 56
r 0.55308 0 2 cbr 1000 ------- 2 0.0 3.0 56 56
+ 0.55308 2 3 cbr 1000 ------- 2 0.0 3.0 56 56
- 0.55308 2 3 cbr 1000 ------- 2 0.0 3.0 56 56
r 0.555228 2 3 cbr 1000 ------- 2 0.0 3.0 55 55
+ 0.556 0 2 cbr 1000 ------- 2 0.0 3.0 57 57
- 0.556 0 2 cbr 1000 ------- 2 0.0 3.0 57 57
r 0.56108 0 2 cbr 1000 ------- 2 0.0 3.0 57 57
+ 0.56108 2 3 cbr 1000 ------- 2 0.0 3.0 57 57
- 0.56108 2 3 cbr 1000 ------- 2 0.0 3.0 57 57
r 0.563228 2 3 cbr 1000 ------- 2 0.0 3.0 56 56
+ 0.564 0 2 cbr 1000 ------- 2 0.0 3.0 58 58
- 0.564 0 2 cbr 1000 ------- 2 0.0 3.0 58 58
r 0.56908 0 2 cbr 1000 ------- 2 0.0 3.0 58 58
+ 0.56908 2 3 cbr 1000 ------- 2 0.0 3.0 58 58
- 0.56908 2 3 cbr 1000 ------- 2 0.0 3.0 58 58
r 0.571228 2 3 cbr 1000 ------- 2 0.0 3.0 57 57
+ 0.572 0 2 cbr 1000 ------- 2 0.0 3.0 59 59
- 0.572 0 2 cbr 1000 ------- 2 0.0 3.0 59 59
r 0.57708 0 2 cbr 1000 ------- 2 0.0 3.0 59 59
+ 0.57708 2 3 cbr 1000 ------- 2 0.0 3.0 59 59
- 0.57708 2 3 cbr 1000 ------- 2 0.0 3.0 59 59
r 0.579228 2 3 cbr 1000 ------- 2 0.0 3.0 58 58
+ 0.58 0 2 cbr 1000 ------- 2 0.0 3.0 60 60
- 0.58 0 2 cbr 1000 ------- 2 0.0 3.0 60 60
r 0.58508 0 2 cbr 1000 ------- 2 0.0 3.0 60 60
+ 0.58508 2 3 cbr 1000 ------- 2 0.0 3.0 60 60
- 0.58508 2 3 cbr 1000 ------- 2 0.0 3.0 60 60
r 0.587228 2 3 cbr 1000 ------- 2 0.0 3.0 59 59
+ 0.588 0 2 cbr 1000 ------- 2 0.0 3.0 61 61
- 0.588 0 2 cbr 1000 ------- 2 0.0 3.0 61 61
r 0.59308 0 2 cbr 1000 ------- 2 0.0 3.0 61 61
+ 0.59308 2 3 cbr 1000 ------- 2 0.0 3.0 61 61
- 0.59308 2 3 cbr 1000 ------- 2 0.0 3.0 61 61
r 0.595228 2 3 cbr 1000 ------- 2 0.0 3.0 60 60
+ 0.596 0 2 cbr 1000 ------- 2 0.0 3.0 62 62
- 0.596 0 2 cbr 1000 ------- 2 0.0 3.0 62 62
r 0.60108 0 2 cbr 1000 ------- 2 0.0 3.0 62 62
+ 0.60108 2 3 cbr 1000 ------- 2 0.0 3.0 62 62
- 0.60108 2 3 cbr 1000 ------- 2 0.0 3.0 62 62
r 0.603228 2 3 cbr 1000 ------- 2 0.0 3.0 61 61
+ 0.604 0 2 cbr 1000 ------- 2 0.0 3.0 63 63
- 0.604 0 2 cbr 1000 ------- 2 0.0 3.0 63 63
r 0.60908 0 2 cbr 1000 ------- 2 0.0 3.0 63 63
+ 0.60908 2 3 cbr 1000 ------- 2 0.0 3.0 63 63
- 0.60908 2 3 cbr 1000 ------- 2 0.0 3.0 63 63
r 0.611228 2 3 cbr 1000 ------- 2 0.0 3.0 62 62
+ 0.612 0 2 cbr 1000 ------- 2 0.0 3.0 64 64
- 0.612 0 2 cbr 1000 ------- 2 0.0 3.0 64 64
r 0.61708 0 2 cbr 1000 ------- 2 0.0 3.0 64 64
+ 0.61708 2 3 cbr 1000 ------- 2 0.0 3.0 64 64
- 0.61708 2 3 cbr 1000 ------- 2 0.0 3.0 64 64
r 0.619228 2 3 cbr 1000 ------- 2 0.0 3.0 63 63
+ 0.62 0 2 cbr 1000 ------- 2 0.0 3.0 65 65
- 0.62 0 2 cbr 1000 ------- 2 0.0 3.0 65 65
r 0.62508 0 2 cbr 1000 ------- 2 0.0 3.0 65 65
+ 0.62508 2 3 cbr 1000 ------- 2 0.0 3.0 65 65
- 0.62508 2 3 cbr 1000 ------- 2 0.0 3.0 65 65
r 0.627228 2 3 cbr 1000 ------- 2 0.0 3.0 64 64
+ 0.628 0 2 cbr 1000 ------- 2 0.0 3.0 66 66
- 0.628 0 2 cbr 1000 ------- 2 0.0 3.0 66 66
r 0.63308 0 2 cbr 1000 ------- 2 0.0 3.0 66 66
+ 0.63308 2 3 cbr 1000 ------- 2 0.0 3.0 66 66
- 0.63308 2 3 cbr 1000 ------- 2 0.0 3.0 66 66
r 0.635228 2 3 cbr 1000 ------- 2 0.0 3.0 65 65
+ 0.636 0 2 cbr 1000 ------- 2 0.0 3.0 67 67
- 0.636 0 2 cbr 1000 ------- 2 0.0 3.0 67 67
r 0.64108 0 2 cbr 1000 ------- 2 0.0 3.0 67 67
+ 0.64108 2 3 cbr 1000 ------- 2 0.0 3.0 67 67
- 0.64108 2 3 cbr 1000 ------- 2 0.0 3.0 67 67
r 0.643228 2 3 cbr 1000 ------- 2 0.0 3.0 66 66
+ 0.644 0 2 cbr 1000 ------- 2 0.0 3.0 68 68
- 0.644 0 2 cbr 1000 ------- 2 0.0 3.0 68 68
r 0.64908 0 2 cbr 1000 ------- 2 0.0 3.0 68 68
+ 0.64908 2 3 cbr 1000 ------- 2 0.0 3.0 68 68
- 0.64908 2 3 cbr 1000 ------- 2 0.0 3.0 68 68
r 0.651228 2 3 cbr 1000 ------- 2 0.0 3.0 67 67
+ 0.652 0 2 cbr 1000 ------- 2 0.0 3.0 69 69
- 0.652 0 2 cbr 1000 ------- 2 0.0 3.0 69 69
r 0.65708 0 2 cbr 1000 ------- 2 0.0 3.0 69 69
+ 0.65708 2 3 cbr 1000 ------- 2 0.0 3.0 69 69
- 0.65708 2 3 cbr 1000 ------- 2 0.0 3.0 69 69
r 0.659228 2 3 cbr 1000 ------- 2 0.0 3.0 68 68
+ 0.66 0 2 cbr 1000 ------- 2 0.0 3.0 70 70
- 0.66 0 2 cbr 1000 ------- 2 0.0 3.0 70 70
r 0.66508 0 2 cbr 1000 ------- 2 0.0 3.0 70 70
+ 0.66508 2 3 cbr 1000 ------- 2 0.0 3.0 70 70
- 0.66508 2 3 cbr 1000 ------- 2 0.0 3.0 70 70
r 0.667228 2 3 cbr 1000 ------- 2 0.0 3.0 69 69
+ 0.668 0 2 cbr 1000 ------- 2 0.0 3.0 71 71
- 0.668 0 2 cbr 1000 ------- 2 0.0 3.0 71 71
r 0.67308 0 2 cbr 1000 ------- 2 0.0 3.0 71 71
+ 0.67308 2 3 cbr 1000 ------- 2 0.0 3.0 71 71
- 0.67308 2 3 cbr 1000 ------- 2 0.0 3.0 71 71
r 0.675228 2 3 cbr 1000 ------- 2 0.0 3.0 70 70
+ 0.676 0 2 cbr 1000 ------- 2 0.0 3.0 72 72
- 0.676 0 2 cbr 1000 ------- 2 0.0 3.0 72 72
r 0.68108 0 2 cbr 1000 ------- 2 0.0 3.0 72 72
+ 0.68108 2 3 cbr 1000 ------- 2 0.0 3.0 72 72
- 0.68108 2 3 cbr 1000 ------- 2 0.0 3.0 72 72
r 0.683228 2 3 cbr 1000 ------- 2 0.0 3.0 71 71
+ 0.684 0 2 cbr 1000 ------- 2 0.0 3.0 73 73
- 0.684 0 2 cbr 1000 ------- 2 0.0 3.0 73 73
r 0.68908 0 2 cbr 1000 ------- 2 0.0 3.0 73 73
+ 0.68908 2 3 cbr 1000 ------- 2 0.0 3.0 73 73
- 0.68908 2 3 cbr 1000 ------- 2 0.0 3.0 73 73
r 0.691228 2 3 cbr 1000 ------- 2 0.0 3.0 72 72
+ 0.692 0 2 cbr 1000 ------- 2 0.0 3.0 74 74
- 0.692 0 2 cbr 1000 ------- 2 0.0 3.0 74 74
r 0.69708 0 2 cbr 1000 ------- 2 0.0 3.0 74 74
+ 0.69708 2 3 cbr 1000 ------- 2 0.0 3.0 74 74
- 0.69708 2 3 cbr 1000 ------- 2 0.0 3.0 74 74
r 0.699228 2 3 cbr 1000 ------- 2 0.0 3.0 73 73
+ 0.7 0 2 cbr 1000 ------- 2 0.0 3.0 75 75
- 0.7 0 2 cbr 1000 ------- 2 0.0 3.0 75 75
r 0.70508 0 2 cbr 1000 ------- 2 0.0 3.0 75 75
+ 0.70508 2 3 cbr 1000 ------- 2 0.0 3.0 75 75
- 0.70508 2 3 cbr 1000 ------- 2 0.0 3.0 75 75
r 0.707228 2 3 cbr 1000 ------- 2 0.0 3.0 74 74
+ 0.708 0 2 cbr 1000 ------- 2 0.0 3.0 76 76
- 0.708 0 2 cbr 1000 ------- 2 0.0 3.0 76 76
r 0.71308 0 2 cbr 1000 ------- 2 0.0 3.0 76 76
+ 0.71308 2 3 cbr 1000 ------- 2 0.0 3.0 76 76
- 0.71308 2 3 cbr 1000 ------- 2 0.0 3.0 76 76
r 0.715228 2 3 cbr 1000 ------- 2 0.0 3.0 75 75
+ 0.716 0 2 cbr 1000 ------- 2 0.0 3.0 77 77
- 0.716 0 2 cbr 1000 ------- 2 0.0 3.0 77 77
r 0.72108 0 2 cbr 1000 ------- 2 0.0 3.0 77 77
+ 0.72108 2 3 cbr 1000 ------- 2 0.0 3.0 77 77
- 0.72108 2 3 cbr 1000 ------- 2 0.0 3.0 77 77
r 0.723228 2 3 cbr 1000 ------- 2 0.0 3.0 76 76
+ 0.724 0 2 cbr 1000 ------- 2 0.0 3.0 78 78
- 0.724 0 2 cbr 1000 ------- 2 0.0 3.0 78 78
r 0.72908 0 2 cbr 1000 ------- 2 0.0 3.0 78 78
+ 0.72908 2 3 cbr 1000 ------- 2 0.0 3.0 78 78
- 0.72908 2 3 cbr 1000 ------- 2 0.0 3.0 78 78
r 0.731228 2 3 cbr 1000 ------- 2 0.0 3.0 77 77
+ 0.732 0 2 cbr 1000 ------- 2 0.0 3.0 79 79
- 0.732 0 2 cbr 1000 ------- 2 0.0 3.0 79 79
r 0.73708 0 2 cbr 1000 ------- 2 0.0 3.0 79 79
+ 0.73708 2 3 cbr 1000 ------- 2 0.0 3.0 79 79
- 0.73708 2 3 cbr 1000 ------- 2 0.0 3.0 79 79
r 0.739228 2 3 cbr 1000 ------- 2 0.0 3.0 78 78
+ 0.74 0 2 cbr 1000 ------- 2 0.0 3.0 80 80
- 0.74 0 2 cbr 1000 ------- 2 0.0 3.0 80 80
r 0.74508 0 2 cbr 1000 ------- 2 0.0 3.0 80 80
+ 0.74508 2 3 cbr 1000 ------- 2 0.0 3.0 80 80
- 0.74508 2 3 cbr 1000 ------- 2 0.0 3.0 80 80
r 0.747228 2 3 cbr 1000 ------- 2 0.0 3.0 79 79
+ 0.748 0 2 cbr 1000 ------- 2 0.0 3.0 81 81
- 0.748 0 2 cbr 1000 ------- 2 0.0 3.0 81 81
r 0.75308 0 2 cbr 1000 ------- 2 0.0 3.0 81 81
+ 0.75308 2 3 cbr 1000 ------- 2 0.0 3.0 81 81
- 0.75308 2 3 cbr 1000 ------- 2 0.0 3.0 81 81
r 0.755228 2 3 cbr 1000 ------- 2 0.0 3.0 80 80
+ 0.756 0 2 cbr 1000 ------- 2 0.0 3.0 82 82
- 0.756 0 2 cbr 1000 ------- 2 0.0 3.0 82 82
r 0.76108 0 2 cbr 1000 ------- 2 0.0 3.0 82 82
+ 0.76108 2 3 cbr 1000 ------- 2 0.0 3.0 82 82
- 0.76108 2 3 cbr 1000 ------- 2 0.0 3.0 82 82
r 0.763228 2 3 cbr 1000 ------- 2 0.0 3.0 81 81
+ 0.764 0 2 cbr 1000 ------- 2 0.0 3.0 83 83
- 0.764 0 2 cbr 1000 ------- 2 0.0 3.0 83 83
r 0.76908 0 2 cbr 1000 ------- 2 0.0 3.0 83 83
+ 0.76908 2 3 cbr 1000 ------- 2 0.0 3.0 83 83
- 0.76908 2 3 cbr 1000 ------- 2 0.0 3.0 83 83
r 0.771228 2 3 cbr 1000 ------- 2 0.0 3.0 82 82
+ 0.772 0 2 cbr 1000 ------- 2 0.0 3.0 84 84
- 0.772 0 2 cbr 1000 ------- 2 0.0 3.0 84 84
r 0.77708 0 2 cbr 1000 ------- 2 0.0 3.0 84 84
+ 0.77708 2 3 cbr 1000 ------- 2 0.0 3.0 84 84
- 0.77708 2 3 cbr 1000 ------- 2 0.0 3.0 84 84
r 0.779228 2 3 cbr 1000 ------- 2 0.0 3.0 83 83
+ 0.78 0 2 cbr 1000 ------- 2 0.0 3.0 85 85
- 0.78 0 2 cbr 1000 ------- 2 0.0 3.0 85 85
r 0.78508 0 2 cbr 1000 ------- 2 0.0 3.0 85 85
+ 0.78508 2 3 cbr 1000 ------- 2 0.0 3.0 85 85
- 0.78508 2 3 cbr 1000 ------- 2 0.0 3.0 85 85
r 0.787228 2 3 cbr 1000 ------- 2 0.0 3.0 84 84
+ 0.788 0 2 cbr 1000 ------- 2 0.0 3.0 86 86
- 0.788 0 2 cbr 1000 ------- 2 0.0 3.0 86 86
r 0.79308 0 2 cbr 1000 ------- 2 0.0 3.0 86 86
+ 0.79308 2 3 cbr 1000 ------- 2 0.0 3.0 86 86
- 0.79308 2 3 cbr 1000 ------- 2 0.0 3.0 86 86
r 0.795228 2 3 cbr 1000 ------- 2 0.0 3.0 85 85
+ 0.796 0 2 cbr 1000 ------- 2 0.0 3.0 87 87
- 0.796 0 2 cbr 1000 ------- 2 0.0 3.0 87 87
r 0.80108 0 2 cbr 1000 ------- 2 0.0 3.0 87 87
+ 0.80108 2 3 cbr 1000 ------- 2 0.0 3.0 87 87
- 0.80108 2 3 cbr 1000 ------- 2 0.0 3.0 87 87
r 0.803228 2 3 cbr 1000 ------- 2 0.0 3.0 86 86
+ 0.804 0 2 cbr 1000 ------- 2 0.0 3.0 88 88
- 0.804 0 2 cbr 1000 ------- 2 0.0 3.0 88 88
r 0.80908 0 2 cbr 1000 ------- 2 0.0 3.0 88 88
+ 0.80908 2 3 cbr 1000 ------- 2 0.0 3.0 88 88
- 0.80908 2 3 cbr 1000 ------- 2 0.0 3.0 88 88
r 0.811228 2 3 cbr 1000 ------- 2 0.0 3.0 87 87
+ 0.812 0 2 cbr 1000 ------- 2 0.0 3.0 89 89
- 0.812 0 2 cbr 1000 ------- 2 0.0 3.0 89 89
r 0.81708 0 2 cbr 1000 ------- 2 0.0 3.0 89 89
+ 0.81708 2 3 cbr 1000 ------- 2 0.0 3.0 89 89
- 0.81708 2 3 cbr 1000 ------- 2 0.0 3.0 89 89
r 0.819228 2 3 cbr 1000 ------- 2 0.0 3.0 88 88
+ 0.82 0 2 cbr 1000 ------- 2 0.0 3.0 90 90
- 0.82 0 2 cbr 1000 ------- 2 0.0 3.0 90 90
r 0.82508 0 2 cbr 1000 ------- 2 0.0 3.0 90 90
+ 0.82508 2 3 cbr 1000 ------- 2 0.0 3.0 90 90
- 0.82508 2 3 cbr 1000 ------- 2 0.0 3.0 90 90
r 0.827228 2 3 cbr 1000 ------- 2 0.0 3.0 89 89
+ 0.828 0 2 cbr 1000 ------- 2 0.0 3.0 91 91
- 0.828 0 2 cbr 1000 ------- 2 0.0 3.0 91 91
r 0.83308 0 2 cbr 1000 ------- 2 0.0 3.0 91 91
+ 0.83308 2 3 cbr 1000 ------- 2 0.0 3.0 91 91
- 0.83308 2 3 cbr 1000 ------- 2 0.0 3.0 91 91
r 0.835228 2 3 cbr 1000 ------- 2 0.0 3.0 90 90
+ 0.836 0 2 cbr 1000 ------- 2 0.0 3.0 92 92
- 0.836 0 2 cbr 1000 ------- 2 0.0 3.0 92 92
r 0.84108 0 2 cbr 1000 ------- 2 0.0 3.0 92 92
+ 0.84108 2 3 cbr 1000 ------- 2 0.0 3.0 92 92
- 0.84108 2 3 cbr 1000 ------- 2 0.0 3.0 92 92
r 0.843228 2 3 cbr 1000 ------- 2 0.0 3.0 91 91
+ 0.844 0 2 cbr 1000 ------- 2 0.0 3.0 93 93
- 0.844 0 2 cbr 1000 ------- 2 0.0 3.0 93 93
r 0.84908 0 2 cbr 1000 ------- 2 0.0 3.0 93 93
+ 0.84908 2 3 cbr 1000 ------- 2 0.0 3.0 93 93
- 0.84908 2 3 cbr 1000 ------- 2 0.0 3.0 93 93
r 0.851228 2 3 cbr 1000 ------- 2 0.0 3.0 92 92
+ 0.852 0 2 cbr 1000 ------- 2 0.0 3.0 94 94
- 0.852 0 2 cbr 1000 ------- 2 0.0 3.0 94 94
r 0.85708 0 2 cbr 1000 ------- 2 0.0 3.0 94 94
+ 0.85708 2 3 cbr 1000 ------- 2 0.0 3.0 94 94
- 0.85708 2 3 cbr 1000 ------- 2 0.0 3.0 94 94
r 0.859228 2 3 cbr 1000 ------- 2 0.0 3.0 93 93
+ 0.86 0 2 cbr 1000 ------- 2 0.0 3.0 95 95
- 0.86 0 2 cbr 1000 ------- 2 0.0 3.0 95 95
r 0.86508 0 2 cbr 1000 ------- 2 0.0 3.0 95 95
+ 0.86508 2 3 cbr 1000 ------- 2 0.0 3.0 95 95
- 0.86508 2 3 cbr 1000 ------- 2 0.0 3.0 95 95
r 0.867228 2 3 cbr 1000 ------- 2 0.0 3.0 94 94
+ 0.868 0 2 cbr 1000 ------- 2 0.0 3.0 96 96
- 0.868 0 2 cbr 1000 ------- 2 0.0 3.0 96 96
r 0.87308 0 2 cbr 1000 ------- 2 0.0 3.0 96 96
+ 0.87308 2 3 cbr 1000 ------- 2 0.0 3.0 96 96
- 0.87308 2 3 cbr 1000 ------- 2 0.0 3.0 96 96
r 0.875228 2 3 cbr 1000 ------- 2 0.0 3.0 95 95
+ 0.876 0 2 cbr 1000 ------- 2 0.0 3.0 97 97
- 0.876 0 2 cbr 1000 ------- 2 0.0 3.0 97 97
r 0.88108 0 2 cbr 1000 ------- 2 0.0 3.0 97 97
+ 0.88108 2 3 cbr 1000 ------- 2 0.0 3.0 97 97
- 0.88108 2 3 cbr 1000 ------- 2 0.0 3.0 97 97
r 0.883228 2 3 cbr 1000 ------- 2 0.0 3.0 96 96
+ 0.884 0 2 cbr 1000 ------- 2 0.0 3.0 98 98
- 0.884 0 2 cbr 1000 ------- 2 0.0 3.0 98 98
r 0.88908 0 2 cbr 1000 ------- 2 0.0 3.0 98 98
+ 0.88908 2 3 cbr 1000 ------- 2 0.0 3.0 98 98
- 0.88908 2 3 cbr 1000 ------- 2 0.0 3.0 98 98
r 0.891228 2 3 cbr 1000 ------- 2 0.0 3.0 97 97
+ 0.892 0 2 cbr 1000 ------- 2 0.0 3.0 99 99
- 0.892 0 2 cbr 1000 ------- 2 0.0 3.0 99 99
r 0.89708 0 2 cbr 1000 ------- 2 0.0 3.0 99 99
+ 0.89708 2 3 cbr 1000 ------- 2 0.0 3.0 99 99
- 0.89708 2 3 cbr 1000 ------- 2 0.0 3.0 99 99
r 0.899228 2 3 cbr 1000 ------- 2 0.0 3.0 98 98
+ 0.9 0 2 cbr 1000 ------- 2 0.0 3.0 100 100
- 0.9 0 2 cbr 1000 ------- 2 0.0 3.0 100 100
r 0.90508 0 2 cbr 1000 ------- 2 0.0 3.0 100 100
+ 0.90508 2 3 cbr 1000 ------- 2 0.0 3.0 100 100
- 0.90508 2 3 cbr 1000 ------- 2 0.0 3.0 100 100
r 0.907228 2 3 cbr 1000 ------- 2 0.0 3.0 99 99
+ 0.908 0 2 cbr 1000 ------- 2 0.0 3.0 101 101
- 0.908 0 2 cbr 1000 ------- 2 0.0 3.0 101 101
r 0.91308 0 2 cbr 1000 ------- 2 0.0 3.0 101 101
+ 0.91308 2 3 cbr 1000 ------- 2 0.0 3.0 101 101
- 0.91308 2 3 cbr 1000 ------- 2 0.0 3.0 101 101
r 0.915228 2 3 cbr 1000 ------- 2 0.0 3.0 100 100
+ 0.916 0 2 cbr 1000 ------- 2 0.0 3.0 102 102
- 0.916 0 2 cbr 1000 ------- 2 0.0 3.0 102 102
r 0.92108 0 2 cbr 1000 ------- 2 0.0 3.0 102 102
+ 0.92108 2 3 cbr 1000 ------- 2 0.0 3.0 102 102
- 0.92108 2 3 cbr 1000 ------- 2 0.0 3.0 102 102
r 0.923228 2 3 cbr 1000 ------- 2 0.0 3.0 101 101
+ 0.924 0 2 cbr 1000 ------- 2 0.0 3.0 103 103
- 0.924 0 2 cbr 1000 ------- 2 0.0 3.0 103 103
r 0.92908 0 2 cbr 1000 ------- 2 0.0 3.0 103 103
+ 0.92908 2 3 cbr 1000 ------- 2 0.0 3.0 103 103
- 0.92908 2 3 cbr 1000 ------- 2 0.0 3.0 103 103
r 0.931228 2 3 cbr 1000 ------- 2 0.0 3.0 102 102
+ 0.932 0 2 cbr 1000 ------- 2 0.0 3.0 104 104
- 0.932 0 2 cbr 1000 ------- 2 0.0 3.0 104 104
r 0.93708 0 2 cbr 1000 ------- 2 0.0 3.0 104 104
+ 0.93708 2 3 cbr 1000 ------- 2 0.0 3.0 104 104
- 0.93708 2 3 cbr 1000 ------- 2 0.0 3.0 104 104
r 0.939228 2 3 cbr 1000 ------- 2 0.0 3.0 103 103
+ 0.94 0 2 cbr 1000 ------- 2 0.0 3.0 105 105
- 0.94 0 2 cbr 1000 ------- 2 0.0 3.0 105 105
r 0.94508 0 2 cbr 1000 ------- 2 0.0 3.0 105 105
+ 0.94508 2 3 cbr 1000 ------- 2 0.0 3.0 105 105
- 0.94508 2 3 cbr 1000 ------- 2 0.0 3.0 105 105
r 0.947228 2 3 cbr 1000 ------- 2 0.0 3.0 104 104
+ 0.948 0 2 cbr 1000 ------- 2 0.0 3.0 106 106
- 0.948 0 2 cbr 1000 ------- 2 0.0 3.0 106 106
r 0.95308 0 2 cbr 1000 ------- 2 0.0 3.0 106 106
+ 0.95308 2 3 cbr 1000 ------- 2 0.0 3.0 106 106
- 0.95308 2 3 cbr 1000 ------- 2 0.0 3.0 106 106
r 0.955228 2 3 cbr 1000 ------- 2 0.0 3.0 105 105
+ 0.956 0 2 cbr 1000 ------- 2 0.0 3.0 107 107
- 0.956 0 2 cbr 1000 ------- 2 0.0 3.0 107 107
r 0.96108 0 2 cbr 1000 ------- 2 0.0 3.0 107 107
+ 0.96108 2 3 cbr 1000 ------- 2 0.0 3.0 107 107
- 0.96108 2 3 cbr 1000 ------- 2 0.0 3.0 107 107