+ 0.1 1 2 cbr 1000 ------- 2 1.0 3.0 0 0
- 0.1 1 2 cbr 1000 ------- 2 1.0 3.0 0 0
+ 0.108 1 2 cbr 1000 ------- 2 1.0 3.0 1 1
- 0.108 1 2 cbr 1000 ------- 2 1.0 3.0 1 1
+ 0.116 1 2 cbr 1000 ------- 2 1.0 3.0 2 2
- 0.116 1 2 cbr 1000 ------- 2 1.0 3.0 2 2
r 0.118 1 2 cbr 1000 ------- 2 1.0 3.0 0 0
+ 0.118 2 3 cbr 1000 ------- 2 1.0 3.0 0 0
- 0.118 2 3 cbr 1000 ------- 2 1.0 3.0 0 0
+ 0.124 1 2 cbr 1000 ------- 2 1.0 3.0 3 3
- 0.124 1 2 cbr 1000 ------- 2 1.0 3.0 3 3
r 0.126 1 2 cbr 1000 ------- 2 1.0 3.0 1 1
+ 0.126 2 3 cbr 1000 ------- 2 1.0 3.0 1 1
- 0.126 2 3 cbr 1000 ------- 2 1.0 3.0 1 1
+ 0.132 1 2 cbr 1000 ------- 2 1.0 3.0 4 4
- 0.132 1 2 cbr 1000 ------- 2 1.0 3.0 4 4
r 0.133714 2 3 cbr 1000 ------- 2 1.0 3.0 0 0
r 0.134 1 2 cbr 1000 ------- 2 1.0 3.0 2 2
+ 0.134 2 3 cbr 1000 ------- 2 1.0 3.0 2 2
- 0.134 2 3 cbr 1000 ------- 2 1.0 3.0 2 2
+ 0.14 1 2 cbr 1000 ------- 2 1.0 3.0 5 5
- 0.14 1 2 cbr 1000 ------- 2 1.0 3.0 5 5
r 0.141714 2 3 cbr 1000 ------- 2 1.0 3.0 1 1
r 0.142 1 2 cbr 1000 ------- 2 1.0 3.0 3 3
+ 0.142 2 3 cbr 1000 ------- 2 1.0 3.0 3 3
- 0.142 2 3 cbr 1000 ------- 2 1.0 3.0 3 3
+ 0.148 1 2 cbr 1000 ------- 2 1.0 3.0 6 6
- 0.148 1 2 cbr 1000 ------- 2 1.0 3.0 6 6
r 0.149714 2 3 cbr 1000 ------- 2 1.0 3.0 2 2
r 0.15 1 2 cbr 1000 ------- 2 1.0 3.0 4 4
+ 0.15 2 3 cbr 1000 ------- 2 1.0 3.0 4 4
- 0.15 2 3 cbr 1000 ------- 2 1.0 3.0 4 4
+ 0.156 1 2 cbr 1000 ------- 2 1.0 3.0 7 7
- 0.156 1 2 cbr 1000 ------- 2 1.0 3.0 7 7
r 0.157714 2 3 cbr 1000 ------- 2 1.0 3.0 3 3
r 0.158 1 2 cbr 1000 ------- 2 1.0 3.0 5 5
+ 0.158 2 3 cbr 1000 ------- 2 1.0 3.0 5 5
- 0.158 2 3 cbr 1000 ------- 2 1.0 3.0 5 5
+ 0.164 1 2 cbr 1000 ------- 2 1.0 3.0 8 8
- 0.164 1 2 cbr 1000 ------- 2 1.0 3.0 8 8
r 0.165714 2 3 cbr 1000 ------- 2 1.0 3.0 4 4
r 0.166 1 2 cbr 1000 ------- 2 1.0 3.0 6 6
+ 0.166 2 3 cbr 1000 ------- 2 1.0 3.0 6 6
- 0.166 2 3 cbr 1000 ------- 2 1.0 3.0 6 6
+ 0.172 1 2 cbr 1000 ------- 2 1.0 3.0 9 9
- 0.172 1 2 cbr 1000 ------- 2 1.0 3.0 9 9
r 0.173714 2 3 cbr 1000 ------- 2 1.0 3.0 5 5
r 0.174 1 2 cbr 1000 ------- 2 1.0 3.0 7 7
+ 0.174 2 3 cbr 1000 ------- 2 1.0 3.0 7 7
- 0.174 2 3 cbr 1000 ------- 2 1.0 3.0 7 7
+ 0.18 1 2 cbr 1000 ------- 2 1.0 3.0 10 10
- 0.18 1 2 cbr 1000 ------- 2 1.0 3.0 10 10
r 0.181714 2 3 cbr 1000 ------- 2 1.0 3.0 6 6
r 0.182 1 2 cbr 1000 ------- 2 1.0 3.0 8 8
+ 0.182 2 3 cbr 1000 ------- 2 1.0 3.0 8 8
- 0.182 2 3 cbr 1000 ------- 2 1.0 3.0 8 8
+ 0.188 1 2 cbr 1000 ------- 2 1.0 3.0 11 11
- 0.188 1 2 cbr 1000 ------- 2 1.0 3.0 11 11
r 0.189714 2 3 cbr 1000 ------- 2 1.0 3.0 7 7
r 0.19 1 2 cbr 1000 ------- 2 1.0 3.0 9 9
+ 0.19 2 3 cbr 1000 ------- 2 1.0 3.0 9 9
- 0.19 2 3 cbr 1000 ------- 2 1.0 3.0 9 9
+ 0.196 1 2 cbr 1000 ------- 2 1.0 3.0 12 12
- 0.196 1 2 cbr 1000 ------- 2 1.0 3.0 12 12
r 0.197714 2 3 cbr 1000 ------- 2 1.0 3.0 8 8
r 0.198 1 2 cbr 1000 ------- 2 1.0 3.0 10 10
+ 0.198 2 3 cbr 1000 ------- 2 1.0 3.0 10 10
- 0.198 2 3 cbr 1000 ------- 2 1.0 3.0 10 10
+ 0.204 1 2 cbr 1000 ------- 2 1.0 3.0 13 13
- 0.204 1 2 cbr 1000 ------- 2 1.0 3.0 13 13
r 0.205714 2 3 cbr 1000 ------- 2 1.0 3.0 9 9
r 0.206 1 2 cbr 1000 ------- 2 1.0 3.0 11 11
+ 0.206 2 3 cbr 1000 ------- 2 1.0 3.0 11 11
- 0.206 2 3 cbr 1000 ------- 2 1.0 3.0 11 11
+ 0.212 1 2 cbr 1000 ------- 2 1.0 3.0 14 14
- 0.212 1 2 cbr 1000 ------- 2 1.0 3.0 14 14
r 0.213714 2 3 cbr 1000 ------- 2 1.0 3.0 10 10
r 0.214 1 2 cbr 1000 ------- 2 1.0 3.0 12 12
+ 0.214 2 3 cbr 1000 ------- 2 1.0 3.0 12 12
- 0.214 2 3 cbr 1000 ------- 2 1.0 3.0 12 12
+ 0.22 1 2 cbr 1000 ------- 2 1.0 3.0 15 15
- 0.22 1 2 cbr 1000 ------- 2 1.0 3.0 15 15
r 0.221714 2 3 cbr 1000 ------- 2 1.0 3.0 11 11
r 0.222 1 2 cbr 1000 ------- 2 1.0 3.0 13 13
+ 0.222 2 3 cbr 1000 ------- 2 1.0 3.0 13 13
- 0.222 2 3 cbr 1000 ------- 2 1.0 3.0 13 13
+ 0.228 1 2 cbr 1000 ------- 2 1.0 3.0 16 16
- 0.228 1 2 cbr 1000 ------- 2 1.0 3.0 16 16
r 0.229714 2 3 cbr 1000 ------- 2 1.0 3.0 12 12
r 0.23 1 2 cbr 1000 ------- 2 1.0 3.0 14 14
+ 0.23 2 3 cbr 1000 ------- 2 1.0 3.0 14 14
- 0.23 2 3 cbr 1000 ------- 2 1.0 3.0 14 14
+ 0.236 1 2 cbr 1000 ------- 2 1.0 3.0 17 17
- 0.236 1 2 cbr 1000 ------- 2 1.0 3.0 17 17
r 0.237714 2 3 cbr 1000 ------- 2 1.0 3.0 13 13
r 0.238 1 2 cbr 1000 ------- 2 1.0 3.0 15 15
+ 0.238 2 3 cbr 1000 ------- 2 1.0 3.0 15 15
- 0.238 2 3 cbr 1000 ------- 2 1.0 3.0 15 15
+ 0.244 1 2 cbr 1000 ------- 2 1.0 3.0 18 18
- 0.244 1 2 cbr 1000 ------- 2 1.0 3.0 18 18
r 0.245714 2 3 cbr 1000 ------- 2 1.0 3.0 14 14
r 0.246 1 2 cbr 1000 ------- 2 1.0 3.0 16 16
+ 0.246 2 3 cbr 1000 ------- 2 1.0 3.0 16 16
- 0.246 2 3 cbr 1000 ------- 2 1.0 3.0 16 16
+ 0.252 1 2 cbr 1000 ------- 2 1.0 3.0 19 19
- 0.252 1 2 cbr 1000 ------- 2 1.0 3.0 19 19
r 0.253714 2 3 cbr 1000 ------- 2 1.0 3.0 15 15
r 0.254 1 2 cbr 1000 ------- 2 1.0 3.0 17 17
+ 0.254 2 3 cbr 1000 ------- 2 1.0 3.0 17 17
- 0.254 2 3 cbr 1000 ------- 2 1.0 3.0 17 17
+ 0.26 1 2 cbr 1000 ------- 2 1.0 3.0 20 20
- 0.26 1 2 cbr 1000 ------- 2 1.0 3.0 20 20
r 0.261714 2 3 cbr 1000 ------- 2 1.0 3.0 16 16
r 0.262 1 2 cbr 1000 ------- 2 1.0 3.0 18 18
+ 0.262 2 3 cbr 1000 ------- 2 1.0 3.0 18 18
- 0.262 2 3 cbr 1000 ------- 2 1.0 3.0 18 18
+ 0.268 1 2 cbr 1000 ------- 2 1.0 3.0 21 21
- 0.268 1 2 cbr 1000 ------- 2 1.0 3.0 21 21
r 0.269714 2 3 cbr 1000 ------- 2 1.0 3.0 17 17
r 0.27 1 2 cbr 1000 ------- 2 1.0 3.0 19 19
+ 0.27 2 3 cbr 1000 ------- 2 1.0 3.0 19 19
- 0.27 2 3 cbr 1000 ------- 2 1.0 3.0 19 19
+ 0.276 1 2 cbr 1000 ------- 2 1.0 3.0 22 22
- 0.276 1 2 cbr 1000 ------- 2 1.0 3.0 22 22
r 0.277714 2 3 cbr 1000 ------- 2 1.0 3.0 18 18
r 0.278 1 2 cbr 1000 ------- 2 1.0 3.0 20 20
+ 0.278 2 3 cbr 1000 ------- 2 1.0 3.0 20 20
- 0.278 2 3 cbr 1000 ------- 2 1.0 3.0 20 20
+ 0.284 1 2 cbr 1000 ------- 2 1.0 3.0 23 23
- 0.284 1 2 cbr 1000 ------- 2 1.0 3.0 23 23
r 0.285714 2 3 cbr 1000 ------- 2 1.0 3.0 19 19
r 0.286 1 2 cbr 1000 ------- 2 1.0 3.0 21 21
+ 0.286 2 3 cbr 1000 ------- 2 1.0 3.0 21 21
- 0.286 2 3 cbr 1000 ------- 2 1.0 3.0 21 21
+ 0.292 1 2 cbr 1000 ------- 2 1.0 3.0 24 24
- 0.292 1 2 cbr 1000 ------- 2 1.0 3.0 24 24
r 0.293714 2 3 cbr 1000 ------- 2 1.0 3.0 20 20
r 0.294 1 2 cbr 1000 ------- 2 1.0 3.0 22 22
+ 0.294 2 3 cbr 1000 ------- 2 1.0 3.0 22 22
- 0.294 2 3 cbr 1000 ------- 2 1.0 3.0 22 22
+ 0.3 1 2 cbr 1000 ------- 2 1.0 3.0 25 25
- 0.3 1 2 cbr 1000 ------- 2 1.0 3.0 25 25
r 0.301714 2 3 cbr 1000 ------- 2 1.0 3.0 21 21
r 0.302 1 2 cbr 1000 ------- 2 1.0 3.0 23 23
+ 0.302 2 3 cbr 1000 ------- 2 1.0 3.0 23 23
- 0.302 2 3 cbr 1000 ------- 2 1.0 3.0 23 23
+ 0.308 1 2 cbr 1000 ------- 2 1.0 3.0 26 26
- 0.308 1 2 cbr 1000 ------- 2 1.0 3.0 26 26
r 0.309714 2 3 cbr 1000 ------- 2 1.0 3.0 22 22
r 0.31 1 2 cbr 1000 ------- 2 1.0 3.0 24 24
+ 0.31 2 3 cbr 1000 ------- 2 1.0 3.0 24 24
- 0.31 2 3 cbr 1000 ------- 2 1.0 3.0 24 24
+ 0.316 1 2 cbr 1000 ------- 2 1.0 3.0 27 27
- 0.316 1 2 cbr 1000 ------- 2 1.0 3.0 27 27
r 0.317714 2 3 cbr 1000 ------- 2 1.0 3.0 23 23
r 0.318 1 2 cbr 1000 ------- 2 1.0 3.0 25 25
+ 0.318 2 3 cbr 1000 ------- 2 1.0 3.0 25 25
- 0.318 2 3 cbr 1000 ------- 2 1.0 3.0 25 25
+ 0.324 1 2 cbr 1000 ------- 2 1.0 3.0 28 28
- 0.324 1 2 cbr 1000 ------- 2 1.0 3.0 28 28
r 0.325714 2 3 cbr 1000 ------- 2 1.0 3.0 24 24
r 0.326 1 2 cbr 1000 ------- 2 1.0 3.0 26 26
+ 0.326 2 3 cbr 1000 ------- 2 1.0 3.0 26 26
- 0.326 2 3 cbr 1000 ------- 2 1.0 3.0 26 26
+ 0.332 1 2 cbr 1000 ------- 2 1.0 3.0 29 29
- 0.332 1 2 cbr 1000 ------- 2 1.0 3.0 29 29
r 0.333714 2 3 cbr 1000 ------- 2 1.0 3.0 25 25
r 0.334 1 2 cbr 1000 ------- 2 1.0 3.0 27 27
+ 0.334 2 3 cbr 1000 ------- 2 1.0 3.0 27 27
- 0.334 2 3 cbr 1000 ------- 2 1.0 3.0 27 27
+ 0.34 1 2 cbr 1000 ------- 2 1.0 3.0 30 30
- 0.34 1 2 cbr 1000 ------- 2 1.0 3.0 30 30
r 0.341714 2 3 cbr 1000 ------- 2 1.0 3.0 26 26
r 0.342 1 2 cbr 1000 ------- 2 1.0 3.0 28 28
+ 0.342 2 3 cbr 1000 ------- 2 1.0 3.0 28 28
- 0.342 2 3 cbr 1000 ------- 2 1.0 3.0 28 28
+ 0.348 1 2 cbr 1000 ------- 2 1.0 3.0 31 31
- 0.348 1 2 cbr 1000 ------- 2 1.0 3.0 31 31
r 0.349714 2 3 cbr 1000 ------- 2 1.0 3.0 27 27
r 0.35 1 2 cbr 1000 ------- 2 1.0 3.0 29 29
+ 0.35 2 3 cbr 1000 ------- 2 1.0 3.0 29 29
- 0.35 2 3 cbr 1000 ------- 2 1.0 3.0 29 29
+ 0.356 1 2 cbr 1000 ------- 2 1.0 3.0 32 32
- 0.356 1 2 cbr 1000 ------- 2 1.0 3.0 32 32
r 0.357714 2 3 cbr 1000 ------- 2 1.0 3.0 28 28
r 0.358 1 2 cbr 1000 ------- 2 1.0 3.0 30 30
+ 0.358 2 3 cbr 1000 ------- 2 1.0 3.0 30 30
- 0.358 2 3 cbr 1000 ------- 2 1.0 3.0 30 30
+ 0.364 1 2 cbr 1000 ------- 2 1.0 3.0 33 33
- 0.364 1 2 cbr 1000 ------- 2 1.0 3.0 33 33
r 0.365714 2 3 cbr 1000 ------- 2 1.0 3.0 29 29
r 0.366 1 2 cbr 1000 ------- 2 1.0 3.0 31 31
+ 0.366 2 3 cbr 1000 ------- 2 1.0 3.0 31 31
- 0.366 2 3 cbr 1000 ------- 2 1.0 3.0 31 31
+ 0.372 1 2 cbr 1000 ------- 2 1.0 3.0 34 34
- 0.372 1 2 cbr 1000 ------- 2 1.0 3.0 34 34
r 0.373714 2 3 cbr 1000 ------- 2 1.0 3.0 30 30
r 0.374 1 2 cbr 1000 ------- 2 1.0 3.0 32 32
+ 0.374 2 3 cbr 1000 ------- 2 1.0 3.0 32 32
- 0.374 2 3 cbr 1000 ------- 2 1.0 3.0 32 32
+ 0.38 1 2 cbr 1000 ------- 2 1.0 3.0 35 35
- 0.38 1 2 cbr 1000 ------- 2 1.0 3.0 35 35
r 0.381714 2 3 cbr 1000 ------- 2 1.0 3.0 31 31
r 0.382 1 2 cbr 1000 ------- 2 1.0 3.0 33 33
+ 0.382 2 3 cbr 1000 ------- 2 1.0 3.0 33 33
- 0.382 2 3 cbr 1000 ------- 2 1.0 3.0 33 33
+ 0.388 1 2 cbr 1000 ------- 2 1.0 3.0 36 36
- 0.388 1 2 cbr 1000 ------- 2 1.0 3.0 36 36
r 0.389714 2 3 cbr 1000 ------- 2 1.0 3.0 32 32
r 0.39 1 2 cbr 1000 ------- 2 1.0 3.0 34 34
+ 0.39 2 3 cbr 1000 ------- 2 1.0 3.0 34 34
- 0.39 2 3 cbr 1000 ------- 2 1.0 3.0 34 34
+ 0.396 1 2 cbr 1000 ------- 2 1.0 3.0 37 37
- 0.396 1 2 cbr 1000 ------- 2 1.0 3.0 37 37
r 0.397714 2 3 cbr 1000 ------- 2 1.0 3.0 33 33
r 0.398 1 2 cbr 1000 ------- 2 1.0 3.0 35 35
+ 0.398 2 3 cbr 1000 ------- 2 1.0 3.0 35 35
- 0.398 2 3 cbr 1000 ------- 2 1.0 3.0 35 35
+ 0.404 1 2 cbr 1000 ------- 2 1.0 3.0 38 38
- 0.404 1 2 cbr 1000 ------- 2 1.0 3.0 38 38
r 0.405714 2 3 cbr 1000 ------- 2 1.0 3.0 34 34
r 0.406 1 2 cbr 1000 ------- 2 1.0 3.0 36 36
+ 0.406 2 3 cbr 1000 ------- 2 1.0 3.0 36 36
- 0.406 2 3 cbr 1000 ------- 2 1.0 3.0 36 36
+ 0.412 1 2 cbr 1000 ------- 2 1.0 3.0 39 39
- 0.412 1 2 cbr 1000 ------- 2 1.0 3.0 39 39
r 0.413714 2 3 cbr 1000 ------- 2 1.0 3.0 35 35
r 0.414 1 2 cbr 1000 ------- 2 1.0 3.0 37 37
+ 0.414 2 3 cbr 1000 ------- 2 1.0 3.0 37 37
- 0.414 2 3 cbr 1000 ------- 2 1.0 3.0 37 37
+ 0.42 1 2 cbr 1000 ------- 2 1.0 3.0 40 40
- 0.42 1 2 cbr 1000 ------- 2 1.0 3.0 40 40
r 0.421714 2 3 cbr 1000 ------- 2 1.0 3.0 36 36
r 0.422 1 2 cbr 1000 ------- 2 1.0 3.0 38 38
+ 0.422 2 3 cbr 1000 ------- 2 1.0 3.0 38 38
- 0.422 2 3 cbr 1000 ------- 2 1.0 3.0 38 38
+ 0.428 1 2 cbr 1000 ------- 2 1.0 3.0 41 41
- 0.428 1 2 cbr 1000 ------- 2 1.0 3.0 41 41
r 0.429714 2 3 cbr 1000 ------- 2 1.0 3.0 37 37
r 0.43 1 2 cbr 1000 ------- 2 1.0 3.0 39 39
+ 0.43 2 3 cbr 1000 ------- 2 1.0 3.0 39 39
- 0.43 2 3 cbr 1000 ------- 2 1.0 3.0 39 39
+ 0.436 1 2 cbr 1000 ------- 2 1.0 3.0 42 42
- 0.436 1 2 cbr 1000 ------- 2 1.0 3.0 42 42
r 0.437714 2 3 cbr 1000 ------- 2 1.0 3.0 38 38
r 0.438 1 2 cbr 1000 ------- 2 1.0 3.0 40 40
+ 0.438 2 3 cbr 1000 ------- 2 1.0 3.0 40 40
- 0.438 2 3 cbr 1000 ------- 2 1.0 3.0 40 40
+ 0.444 1 2 cbr 1000 ------- 2 1.0 3.0 43 43
- 0.444 1 2 cbr 1000 ------- 2 1.0 3.0 43 43
r 0.445714 2 3 cbr 1000 ------- 2 1.0 3.0 39 39
r 0.446 1 2 cbr 1000 ------- 2 1.0 3.0 41 41
+ 0.446 2 3 cbr 1000 ------- 2 1.0 3.0 41 41
- 0.446 2 3 cbr 1000 ------- 2 1.0 3.0 41 41
+ 0.452 1 2 cbr 1000 ------- 2 1.0 3.0 44 44
- 0.452 1 2 cbr 1000 ------- 2 1.0 3.0 44 44
r 0.453714 2 3 cbr 1000 ------- 2 1.0 3.0 40 40
r 0.454 1 2 cbr 1000 ------- 2 1.0 3.0 42 42
+ 0.454 2 3 cbr 1000 ------- 2 1.0 3.0 42 42
- 0.454 2 3 cbr 1000 ------- 2 1.0 3.0 42 42
+ 0.46 1 2 cbr 1000 ------- 2 1.0 3.0 45 45
- 0.46 1 2 cbr 1000 ------- 2 1.0 3.0 45 45
r 0.461714 2 3 cbr 1000 ------- 2 1.0 3.0 41 41
r 0.462 1 2 cbr 1000 ------- 2 1.0 3.0 43 43
+ 0.462 2 3 cbr 1000 ------- 2 1.0 3.0 43 43
- 0.462 2 3 cbr 1000 ------- 2 1.0 3.0 43 43
+ 0.468 1 2 cbr 1000 ------- 2 1.0 3.0 46 46
- 0.468 1 2 cbr 1000 ------- 2 1.0 3.0 46 46
r 0.469714 2 3 cbr 1000 ------- 2 1.0 3.0 42 42
r 0.47 1 2 cbr 1000 ------- 2 1.0 3.0 44 44
+ 0.47 2 3 cbr 1000 ------- 2 1.0 3.0 44 44
- 0.47 2 3 cbr 1000 ------- 2 1.0 3.0 44 44
+ 0.476 1 2 cbr 1000 ------- 2 1.0 3.0 47 47
- 0.476 1 2 cbr 1000 ------- 2 1.0 3.0 47 47
r 0.477714 2 3 cbr 1000 ------- 2 1.0 3.0 43 43
r 0.478 1 2 cbr 1000 ------- 2 1.0 3.0 45 45
+ 0.478 2 3 cbr 1000 ------- 2 1.0 3.0 45 45
- 0.478 2 3 cbr 1000 ------- 2 1.0 3.0 45 45
+ 0.484 1 2 cbr 1000 ------- 2 1.0 3.0 48 48
- 0.484 1 2 cbr 1000 ------- 2 1.0 3.0 48 48
r 0.485714 2 3 cbr 1000 ------- 2 1.0 3.0 44 44
r 0.486 1 2 cbr 1000 ------- 2 1.0 3.0 46 46
+ 0.486 2 3 cbr 1000 ------- 2 1.0 3.0 46 46
- 0.486 2 3 cbr 1000 ------- 2 1.0 3.0 46 46
+ 0.492 1 2 cbr 1000 ------- 2 1.0 3.0 49 49
- 0.492 1 2 cbr 1000 ------- 2 1.0 3.0 49 49
r 0.493714 2 3 cbr 1000 ------- 2 1.0 3.0 45 45
r 0.494 1 2 cbr 1000 ------- 2 1.0 3.0 47 47
+ 0.494 2 3 cbr 1000 ------- 2 1.0 3.0 47 47
- 0.494 2 3 cbr 1000 ------- 2 1.0 3.0 47 47
+ 0.5 1 2 cbr 1000 ------- 2 1.0 3.0 50 50
- 0.5 1 2 cbr 1000 ------- 2 1.0 3.0 50 50
r 0.501714 2 3 cbr 1000 ------- 2 1.0 3.0 46 46
r 0.502 1 2 cbr 1000 ------- 2 1.0 3.0 48 48
+ 0.502 2 3 cbr 1000 ------- 2 1.0 3.0 48 48
- 0.502 2 3 cbr 1000 ------- 2 1.0 3.0 48 48
+ 0.508 1 2 cbr 1000 ------- 2 1.0 3.0 51 51
- 0.508 1 2 cbr 1000 ------- 2 1.0 3.0 51 51
r 0.509714 2 3 cbr 1000 ------- 2 1.0 3.0 47 47
r 0.51 1 2 cbr 1000 ------- 2 1.0 3.0 49 49
+ 0.51 2 3 cbr 1000 ------- 2 1.0 3.0 49 49
- 0.51 2 3 cbr 1000 ------- 2 1.0 3.0 49 49
+ 0.516 1 2 cbr 1000 ------- 2 1.0 3.0 52 52
- 0.516 1 2 cbr 1000 ------- 2 1.0 3.0 52 52
r 0.517714 2 3 cbr 1000 ------- 2 1.0 3.0 48 48
r 0.518 1 2 cbr 1000 ------- 2 1.0 3.0 50 50
+ 0.518 2 3 cbr 1000 ------- 2 1.0 3.0 50 50
- 0.518 2 3 cbr 1000 ------- 2 1.0 3.0 50 50
+ 0.524 1 2 cbr 1000 ------- 2 1.0 3.0 53 53
- 0.524 1 2 cbr 1000 ------- 2 1.0 3.0 53 53
r 0.525714 2 3 cbr 1000 ------- 2 1.0 3.0 49 49
r 0.526 1 2 cbr 1000 ------- 2 1.0 3.0 51 51
+ 0.526 2 3 cbr 1000 ------- 2 1.0 3.0 51 51
- 0.526 2 3 cbr 1000 ------- 2 1.0 3.0 51 51
+ 0.532 1 2 cbr 1000 ------- 2 1.0 3.0 54 54
- 0.532 1 2 cbr 1000 ------- 2 1.0 3.0 54 54
r 0.533714 2 3 cbr 1000 ------- 2 1.0 3.0 50 50
r 0.534 1 2 cbr 1000 ------- 2 1.0 3.0 52 52
+ 0.534 2 3 cbr 1000 ------- 2 1.0 3.0 52 52
- 0.534 2 3 cbr 1000 ------- 2 1.0 3.0 52 52
+ 0.54 1 2 cbr 1000 ------- 2 1.0 3.0 55 55
- 0.54 1 2 cbr 1000 ------- 2 1.0 3.0 55 55
r 0.541714 2 3 cbr 1000 ------- 2 1.0 3.0 51 51
r 0.542 1 2 cbr 1000 ------- 2 1.0 3.0 53 53
+ 0.542 2 3 cbr 1000 ------- 2 1.0 3.0 53 53
- 0.542 2 3 cbr 1000 ------- 2 1.0 3.0 53 53
+ 0.548 1 2 cbr 1000 ------- 2 1.0 3.0 56 56
- 0.548 1 2 cbr 1000 ------- 2 1.0 3.0 56 56
r 0.549714 2 3 cbr 1000 ------- 2 1.0 3.0 52 52
r 0.55 1 2 cbr 1000 ------- 2 1.0 3.0 54 54
+ 0.55 2 3 cbr 1000 ------- 2 1.0 3.0 54 54
- 0.55 2 3 cbr 1000 ------- 2 1.0 3.0 54 54
+ 0.556 1 2 cbr 1000 ------- 2 1.0 3.0 57 57
- 0.556 1 2 cbr 1000 ------- 2 1.0 3.0 57 57
r 0.557714 2 3 cbr 1000 ------- 2 1.0 3.0 53 53
r 0.558 1 2 cbr 1000 ------- 2 1.0 3.0 55 55
+ 0.558 2 3 cbr 1000 ------- 2 1.0 3.0 55 55
- 0.558 2 3 cbr 1000 ------- 2 1.0 3.0 55 55
+ 0.564 1 2 cbr 1000 ------- 2 1.0 3.0 58 58
- 0.564 1 2 cbr 1000 ------- 2 1.0 3.0 58 58
r 0.565714 2 3 cbr 1000 ------- 2 1.0 3.0 54 54
r 0.566 1 2 cbr 1000 ------- 2 1.0 3.0 56 56
+ 0.566 2 3 cbr 1000 ------- 2 1.0 3.0 56 56
- 0.566 2 3 cbr 1000 ------- 2 1.0 3.0 56 56
+ 0.572 1 2 cbr 1000 ------- 2 1.0 3.0 59 59
- 0.572 1 2 cbr 1000 ------- 2 1.0 3.0 59 59
r 0.573714 2 3 cbr 1000 ------- 2 1.0 3.0 55 55
r 0.574 1 2 cbr 1000 ------- 2 1.0 3.0 57 57
+ 0.574 2 3 cbr 1000 ------- 2 1.0 3.0 57 57
- 0.574 2 3 cbr 1000 ------- 2 1.0 3.0 57 57
+ 0.58 1 2 cbr 1000 ------- 2 1.0 3.0 60 60
- 0.58 1 2 cbr 1000 ------- 2 1.0 3.0 60 60
r 0.581714 2 3 cbr 1000 ------- 2 1.0 3.0 56 56
r 0.582 1 2 cbr 1000 ------- 2 1.0 3.0 58 58
+ 0.582 2 3 cbr 1000 ------- 2 1.0 3.0 58 58
- 0.582 2 3 cbr 1000 ------- 2 1.0 3.0 58 58
+ 0.588 1 2 cbr 1000 ------- 2 1.0 3.0 61 61
- 0.588 1 2 cbr 1000 ------- 2 1.0 3.0 61 61
r 0.589714 2 3 cbr 1000 ------- 2 1.0 3.0 57 57
r 0.59 1 2 cbr 1000 ------- 2 1.0 3.0 59 59
+ 0.59 2 3 cbr 1000 ------- 2 1.0 3.0 59 59
- 0.59 2 3 cbr 1000 ------- 2 1.0 3.0 59 59
+ 0.596 1 2 cbr 1000 ------- 2 1.0 3.0 62 62
- 0.596 1 2 cbr 1000 ------- 2 1.0 3.0 62 62
r 0.597714 2 3 cbr 1000 ------- 2 1.0 3.0 58 58
r 0.598 1 2 cbr 1000 ------- 2 1.0 3.0 60 60
+ 0.598 2 3 cbr 1000 ------- 2 1.0 3.0 60 60
- 0.598 2 3 cbr 1000 ------- 2 1.0 3.0 60 60
+ 0.604 1 2 cbr 1000 ------- 2 1.0 3.0 63 63
- 0.604 1 2 cbr 1000 ------- 2 1.0 3.0 63 63
r 0.605714 2 3 cbr 1000 ------- 2 1.0 3.0 59 59
r 0.606 1 2 cbr 1000 ------- 2 1.0 3.0 61 61
+ 0.606 2 3 cbr 1000 ------- 2 1.0 3.0 61 61
- 0.606 2 3 cbr 1000 ------- 2 1.0 3.0 61 61
+ 0.612 1 2 cbr 1000 ------- 2 1.0 3.0 64 64
- 0.612 1 2 cbr 1000 ------- 2 1.0 3.0 64 64
r 0.613714 2 3 cbr 1000 ------- 2 1.0 3.0 60 60
r 0.614 1 2 cbr 1000 ------- 2 1.0 3.0 62 62
+ 0.614 2 3 cbr 1000 ------- 2 1.0 3.0 62 62
- 0.614 2 3 cbr 1000 ------- 2 1.0 3.0 62 62
+ 0.62 1 2 cbr 1000 ------- 2 1.0 3.0 65 65
- 0.62 1 2 cbr 1000 ------- 2 1.0 3.0 65 65
r 0.621714 2 3 cbr 1000 ------- 2 1.0 3.0 61 61
r 0.622 1 2 cbr 1000 ------- 2 1.0 3.0 63 63
+ 0.622 2 3 cbr 1000 ------- 2 1.0 3.0 63 63
- 0.622 2 3 cbr 1000 ------- 2 1.0 3.0 63 63
+ 0.628 1 2 cbr 1000 ------- 2 1.0 3.0 66 66
- 0.628 1 2 cbr 1000 ------- 2 1.0 3.0 66 66
r 0.629714 2 3 cbr 1000 ------- 2 1.0 3.0 62 62
r 0.63 1 2 cbr 1000 ------- 2 1.0 3.0 64 64
+ 0.63 2 3 cbr 1000 ------- 2 1.0 3.0 64 64
- 0.63 2 3 cbr 1000 ------- 2 1.0 3.0 64 64
+ 0.636 1 2 cbr 1000 ------- 2 1.0 3.0 67 67
- 0.636 1 2 cbr 1000 ------- 2 1.0 3.0 67 67
r 0.637714 2 3 cbr 1000 ------- 2 1.0 3.0 63 63
r 0.638 1 2 cbr 1000 ------- 2 1.0 3.0 65 65
+ 0.638 2 3 cbr 1000 ------- 2 1.0 3.0 65 65
- 0.638 2 3 cbr 1000 ------- 2 1.0 3.0 65 65
+ 0.644 1 2 cbr 1000 ------- 2 1.0 3.0 68 68
- 0.644 1 2 cbr 1000 ------- 2 1.0 3.0 68 68
r 0.645714 2 3 cbr 1000 ------- 2 1.0 3.0 64 64
r 0.646 1 2 cbr 1000 ------- 2 1.0 3.0 66 66
+ 0.646 2 3 cbr 1000 ------- 2 1.0 3.0 66 66
- 0.646 2 3 cbr 1000 ------- 2 1.0 3.0 66 66
+ 0.652 1 2 cbr 1000 ------- 2 1.0 3.0 69 69
- 0.652 1 2 cbr 1000 ------- 2 1.0 3.0 69 69
r 0.653714 2 3 cbr 1000 ------- 2 1.0 3.0 65 65
r 0.654 1 2 cbr 1000 ------- 2 1.0 3.0 67 67
+ 0.654 2 3 cbr 1000 ------- 2 1.0 3.0 67 67
- 0.654 2 3 cbr 1000 ------- 2 1.0 3.0 67 67
+ 0.66 1 2 cbr 1000 ------- 2 1.0 3.0 70 70
- 0.66 1 2 cbr 1000 ------- 2 1.0 3.0 70 70
r 0.661714 2 3 cbr 1000 ------- 2 1.0 3.0 66 66
r 0.662 1 2 cbr 1000 ------- 2 1.0 3.0 68 68
+ 0.662 2 3 cbr 1000 ------- 2 1.0 3.0 68 68
- 0.662 2 3 cbr 1000 ------- 2 1.0 3.0 68 68
+ 0.668 1 2 cbr 1000 ------- 2 1.0 3.0 71 71
- 0.668 1 2 cbr 1000 ------- 2 1.0 3.0 71 71
r 0.669714 2 3 cbr 1000 ------- 2 1.0 3.0 67 67
r 0.67 1 2 cbr 1000 ------- 2 1.0 3.0 69 69
+ 0.67 2 3 cbr 1000 ------- 2 1.0 3.0 69 69
- 0.67 2 3 cbr 1000 ------- 2 1.0 3.0 69 69
+ 0.676 1 2 cbr 1000 ------- 2 1.0 3.0 72 72
- 0.676 1 2 cbr 1000 ------- 2 1.0 3.0 72 72
r 0.677714 2 3 cbr 1000 ------- 2 1.0 3.0 68 68
r 0.678 1 2 cbr 1000 ------- 2 1.0 3.0 70 70
+ 0.678 2 3 cbr 1000 ------- 2 1.0 3.0 70 70
- 0.678 2 3 cbr 1000 ------- 2 1.0 3.0 70 70
+ 0.684 1 2 cbr 1000 ------- 2 1.0 3.0 73 73
- 0.684 1 2 cbr 1000 ------- 2 1.0 3.0 73 73
r 0.685714 2 3 cbr 1000 ------- 2 1.0 3.0 69 69
r 0.686 1 2 cbr 1000 ------- 2 1.0 3.0 71 71
+ 0.686 2 3 cbr 1000 ------- 2 1.0 3.0 71 71
- 0.686 2 3 cbr 1000 ------- 2 1.0 3.0 71 71
+ 0.692 1 2 cbr 1000 ------- 2 1.0 3.0 74 74
- 0.692 1 2 cbr 1000 ------- 2 1.0 3.0 74 74
r 0.693714 2 3 cbr 1000 ------- 2 1.0 3.0 70 70
r 0.694 1 2 cbr 1000 ------- 2 1.0 3.0 72 72
+ 0.694 2 3 cbr 1000 ------- 2 1.0 3.0 72 72
- 0.694 2 3 cbr 1000 ------- 2 1.0 3.0 72 72
+ 0.7 1 2 cbr 1000 ------- 2 1.0 3.0 75 75
- 0.7 1 2 cbr 1000 ------- 2 1.0 3.0 75 75
r 0.701714 2 3 cbr 1000 ------- 2 1.0 3.0 71 71
r 0.702 1 2 cbr 1000 ------- 2 1.0 3.0 73 73
+ 0.702 2 3 cbr 1000 ------- 2 1.0 3.0 73 73
- 0.702 2 3 cbr 1000 ------- 2 1.0 3.0 73 73
+ 0.708 1 2 cbr 1000 ------- 2 1.0 3.0 76 76
- 0.708 1 2 cbr 1000 ------- 2 1.0 3.0 76 76
r 0.709714 2 3 cbr 1000 ------- 2 1.0 3.0 72 72
r 0.71 1 2 cbr 1000 ------- 2 1.0 3.0 74 74
+ 0.71 2 3 cbr 1000 ------- 2 1.0 3.0 74 74
- 0.71 2 3 cbr 1000 ------- 2 1.0 3.0 74 74
+ 0.716 1 2 cbr 1000 ------- 2 1.0 3.0 77 77
- 0.716 1 2 cbr 1000 ------- 2 1.0 3.0 77 77
r 0.717714 2 3 cbr 1000 ------- 2 1.0 3.0 73 73
r 0.718 1 2 cbr 1000 ------- 2 1.0 3.0 75 75
+ 0.718 2 3 cbr 1000 ------- 2 1.0 3.0 75 75
- 0.718 2 3 cbr 1000 ------- 2 1.0 3.0 75 75
+ 0.724 1 2 cbr 1000 ------- 2 1.0 3.0 78 78
- 0.724 1 2 cbr 1000 ------- 2 1.0 3.0 78 78
r 0.725714 2 3 cbr 1000 ------- 2 1.0 3.0 74 74
r 0.726 1 2 cbr 1000 ------- 2 1.0 3.0 76 76
+ 0.726 2 3 cbr 1000 ------- 2 1.0 3.0 76 76
- 0.726 2 3 cbr 1000 ------- 2 1.0 3.0 76 76
+ 0.732 1 2 cbr 1000 ------- 2 1.0 3.0 79 79
- 0.732 1 2 cbr 1000 ------- 2 1.0 3.0 79 79
r 0.733714 2 3 cbr 1000 ------- 2 1.0 3.0 75 75
r 0.734 1 2 cbr 1000 ------- 2 1.0 3.0 77 77
+ 0.734 2 3 cbr 1000 ------- 2 1.0 3.0 77 77
- 0.734 2 3 cbr 1000 ------- 2 1.0 3.0 77 77
+ 0.74 1 2 cbr 1000 ------- 2 1.0 3.0 80 80
- 0.74 1 2 cbr 1000 ------- 2 1.0 3.0 80 80
r 0.741714 2 3 cbr 1000 ------- 2 1.0 3.0 76 76
r 0.742 1 2 cbr 1000 ------- 2 1.0 3.0 78 78
+ 0.742 2 3 cbr 1000 ------- 2 1.0 3.0 78 78
- 0.742 2 3 cbr 1000 ------- 2 1.0 3.0 78 78
+ 0.748 1 2 cbr 1000 ------- 2 1.0 3.0 81 81
- 0.748 1 2 cbr 1000 ------- 2 1.0 3.0 81 81
r 0.749714 2 3 cbr 1000 ------- 2 1.0 3.0 77 77
r 0.75 1 2 cbr 1000 ------- 2 1.0 3.0 79 79
+ 0.75 2 3 cbr 1000 ------- 2 1.0 3.0 79 79
- 0.75 2 3 cbr 1000 ------- 2 1.0 3.0 79 79
+ 0.756 1 2 cbr 1000 ------- 2 1.0 3.0 82 82
- 0.756 1 2 cbr 1000 ------- 2 1.0 3.0 82 82
r 0.757714 2 3 cbr 1000 ------- 2 1.0 3.0 78 78
r 0.758 1 2 cbr 1000 ------- 2 1.0 3.0 80 80
+ 0.758 2 3 cbr 1000 ------- 2 1.0 3.0 80 80
- 0.758 2 3 cbr 1000 ------- 2 1.0 3.0 80 80
+ 0.764 1 2 cbr 1000 ------- 2 1.0 3.0 83 83
- 0.764 1 2 cbr 1000 ------- 2 1.0 3.0 83 83
r 0.765714 2 3 cbr 1000 ------- 2 1.0 3.0 79 79
r 0.766 1 2 cbr 1000 ------- 2 1.0 3.0 81 81
+ 0.766 2 3 cbr 1000 ------- 2 1.0 3.0 81 81
- 0.766 2 3 cbr 1000 ------- 2 1.0 3.0 81 81
+ 0.772 1 2 cbr 1000 ------- 2 1.0 3.0 84 84
- 0.772 1 2 cbr 1000 ------- 2 1.0 3.0 84 84
r 0.773714 2 3 cbr 1000 ------- 2 1.0 3.0 80 80
r 0.774 1 2 cbr 1000 ------- 2 1.0 3.0 82 82
+ 0.774 2 3 cbr 1000 ------- 2 1.0 3.0 82 82
- 0.774 2 3 cbr 1000 ------- 2 1.0 3.0 82 82
+ 0.78 1 2 cbr 1000 ------- 2 1.0 3.0 85 85
- 0.78 1 2 cbr 1000 ------- 2 1.0 3.0 85 85
r 0.781714 2 3 cbr 1000 ------- 2 1.0 3.0 81 81
r 0.782 1 2 cbr 1000 ------- 2 1.0 3.0 83 83
+ 0.782 2 3 cbr 1000 ------- 2 1.0 3.0 83 83
- 0.782 2 3 cbr 1000 ------- 2 1.0 3.0 83 83
+ 0.788 1 2 cbr 1000 ------- 2 1.0 3.0 86 86
- 0.788 1 2 cbr 1000 ------- 2 1.0 3.0 86 86
r 0.789714 2 3 cbr 1000 ------- 2 1.0 3.0 82 82
r 0.79 1 2 cbr 1000 ------- 2 1.0 3.0 84 84
+ 0.79 2 3 cbr 1000 ------- 2 1.0 3.0 84 84
- 0.79 2 3 cbr 1000 ------- 2 1.0 3.0 84 84
+ 0.796 1 2 cbr 1000 ------- 2 1.0 3.0 87 87
- 0.796 1 2 cbr 1000 ------- 2 1.0 3.0 87 87
r 0.797714 2 3 cbr 1000 ------- 2 1.0 3.0 83 83
r 0.798 1 2 cbr 1000 ------- 2 1.0 3.0 85 85
+ 0.798 2 3 cbr 1000 ------- 2 1.0 3.0 85 85
- 0.798 2 3 cbr 1000 ------- 2 1.0 3.0 85 85
+ 0.804 1 2 cbr 1000 ------- 2 1.0 3.0 88 88
- 0.804 1 2 cbr 1000 ------- 2 1.0 3.0 88 88
r 0.805714 2 3 cbr 1000 ------- 2 1.0 3.0 84 84
r 0.806 1 2 cbr 1000 ------- 2 1.0 3.0 86 86
+ 0.806 2 3 cbr 1000 ------- 2 1.0 3.0 86 86
- 0.806 2 3 cbr 1000 ------- 2 1.0 3.0 86 86
+ 0.812 1 2 cbr 1000 ------- 2 1.0 3.0 89 89
- 0.812 1 2 cbr 1000 ------- 2 1.0 3.0 89 89
r 0.813714 2 3 cbr 1000 ------- 2 1.0 3.0 85 85
r 0.814 1 2 cbr 1000 ------- 2 1.0 3.0 87 87
+ 0.814 2 3 cbr 1000 ------- 2 1.0 3.0 87 87
- 0.814 2 3 cbr 1000 ------- 2 1.0 3.0 87 87
+ 0.82 1 2 cbr 1000 ------- 2 1.0 3.0 90 90
- 0.82 1 2 cbr 1000 ------- 2 1.0 3.0 90 90
r 0.821714 2 3 cbr 1000 ------- 2 1.0 3.0 86 86
r 0.822 1 2 cbr 1000 ------- 2 1.0 3.0 88 88
+ 0.822 2 3 cbr 1000 ------- 2 1.0 3.0 88 88
- 0.822 2 3 cbr 1000 ------- 2 1.0 3.0 88 88
+ 0.828 1 2 cbr 1000 ------- 2 1.0 3.0 91 91
- 0.828 1 2 cbr 1000 ------- 2 1.0 3.0 91 91
r 0.829714 2 3 cbr 1000 ------- 2 1.0 3.0 87 87
r 0.83 1 2 cbr 1000 ------- 2 1.0 3.0 89 89
+ 0.83 2 3 cbr 1000 ------- 2 1.0 3.0 89 89
- 0.83 2 3 cbr 1000 ------- 2 1.0 3.0 89 89
+ 0.836 1 2 cbr 1000 ------- 2 1.0 3.0 92 92
- 0.836 1 2 cbr 1000 ------- 2 1.0 3.0 92 92
r 0.837714 2 3 cbr 1000 ------- 2 1.0 3.0 88 88
r 0.838 1 2 cbr 1000 ------- 2 1.0 3.0 90 90
+ 0.838 2 3 cbr 1000 ------- 2 1.0 3.0 90 90
- 0.838 2 3 cbr 1000 ------- 2 1.0 3.0 90 90
+ 0.844 1 2 cbr 1000 ------- 2 1.0 3.0 93 93
- 0.844 1 2 cbr 1000 ------- 2 1.0 3.0 93 93
r 0.845714 2 3 cbr 1000 ------- 2 1.0 3.0 89 89
r 0.846 1 2 cbr 1000 ------- 2 1.0 3.0 91 91
+ 0.846 2 3 cbr 1000 ------- 2 1.0 3.0 91 91
- 0.846 2 3 cbr 1000 ------- 2 1.0 3.0 91 91
+ 0.852 1 2 cbr 1000 ------- 2 1.0 3.0 94 94
- 0.852 1 2 cbr 1000 ------- 2 1.0 3.0 94 94
r 0.853714 2 3 cbr 1000 ------- 2 1.0 3.0 90 90
r 0.854 1 2 cbr 1000 ------- 2 1.0 3.0 92 92
+ 0.854 2 3 cbr 1000 ------- 2 1.0 3.0 92 92
- 0.854 2 3 cbr 1000 ------- 2 1.0 3.0 92 92
+ 0.86 1 2 cbr 1000 ------- 2 1.0 3.0 95 95
- 0.86 1 2 cbr 1000 ------- 2 1.0 3.0 95 95
r 0.861714 2 3 cbr 1000 ------- 2 1.0 3.0 91 91
r 0.862 1 2 cbr 1000 ------- 2 1.0 3.0 93 93
+ 0.862 2 3 cbr 1000 ------- 2 1.0 3.0 93 93
- 0.862 2 3 cbr 1000 ------- 2 1.0 3.0 93 93
+ 0.868 1 2 cbr 1000 ------- 2 1.0 3.0 96 96
- 0.868 1 2 cbr 1000 ------- 2 1.0 3.0 96 96
r 0.869714 2 3 cbr 1000 ------- 2 1.0 3.0 92 92
r 0.87 1 2 cbr 1000 ------- 2 1.0 3.0 94 94
+ 0.87 2 3 cbr 1000 ------- 2 1.0 3.0 94 94
- 0.87 2 3 cbr 1000 ------- 2 1.0 3.0 94 94
+ 0.876 1 2 cbr 1000 ------- 2 1.0 3.0 97 97
- 0.876 1 2 cbr 1000 ------- 2 1.0 3.0 97 97
r 0.877714 2 3 cbr 1000 ------- 2 1.0 3.0 93 93
r 0.878 1 2 cbr 1000 ------- 2 1.0 3.0 95 95
+ 0.878 2 3 cbr 1000 ------- 2 1.0 3.0 95 95
- 0.878 2 3 cbr 1000 ------- 2 1.0 3.0 95 95
+ 0.884 1 2 cbr 1000 ------- 2 1.0 3.0 98 98
- 0.884 1 2 cbr 1000 ------- 2 1.0 3.0 98 98
r 0.885714 2 3 cbr 1000 ------- 2 1.0 3.0 94 94
r 0.886 1 2 cbr 1000 ------- 2 1.0 3.0 96 96
+ 0.886 2 3 cbr 1000 ------- 2 1.0 3.0 96 96
- 0.886 2 3 cbr 1000 ------- 2 1.0 3.0 96 96
+ 0.892 1 2 cbr 1000 ------- 2 1.0 3.0 99 99
- 0.892 1 2 cbr 1000 ------- 2 1.0 3.0 99 99
r 0.893714 2 3 cbr 1000 ------- 2 1.0 3.0 95 95
r 0.894 1 2 cbr 1000 ------- 2 1.0 3.0 97 97
+ 0.894 2 3 cbr 1000 ------- 2 1.0 3.0 97 97
- 0.894 2 3 cbr 1000 ------- 2 1.0 3.0 97 97
+ 0.9 1 2 cbr 1000 ------- 2 1.0 3.0 100 100
- 0.9 1 2 cbr 1000 ------- 2 1.0 3.0 100 100
r 0.901714 2 3 cbr 1000 ------- 2 1.0 3.0 96 96
r 0.902 1 2 cbr 1000 ------- 2 1.0 3.0 98 98
+ 0.902 2 3 cbr 1000 ------- 2 1.0 3.0 98 98
- 0.902 2 3 cbr 1000 ------- 2 1.0 3.0 98 98
+ 0.908 1 2 cbr 1000 ------- 2 1.0 3.0 101 101
- 0.908 1 2 cbr 1000 ------- 2 1.0 3.0 101 101
r 0.909714 2 3 cbr 1000 ------- 2 1.0 3.0 97 97
r 0.91 1 2 cbr 1000 ------- 2 1.0 3.0 99 99
+ 0.91 2 3 cbr 1000 ------- 2 1.0 3.0 99 99
- 0.91 2 3 cbr 1000 ------- 2 1.0 3.0 99 99
+ 0.916 1 2 cbr 1000 ------- 2 1.0 3.0 102 102
- 0.916 1 2 cbr 1000 ------- 2 1.0 3.0 102 102
r 0.917714 2 3 cbr 1000 ------- 2 1.0 3.0 98 98
r 0.918 1 2 cbr 1000 ------- 2 1.0 3.0 100 100
+ 0.918 2 3 cbr 1000 ------- 2 1.0 3.0 100 100
- 0.918 2 3 cbr 1000 ------- 2 1.0 3.0 100 100
+ 0.924 1 2 cbr 1000 ------- 2 1.0 3.0 103 103
- 0.924 1 2 cbr 1000 ------- 2 1.0 3.0 103 103
r 0.925714 2 3 cbr 1000 ------- 2 1.0 3.0 99 99
r 0.926 1 2 cbr 1000 ------- 2 1.0 3.0 101 101
+ 0.926 2 3 cbr 1000 ------- 2 1.0 3.0 101 101
- 0.926 2 3 cbr 1000 ------- 2 1.0 3.0 101 101
+ 0.932 1 2 cbr 1000 ------- 2 1.0 3.0 104 104
- 0.932 1 2 cbr 1000 ------- 2 1.0 3.0 104 104
r 0.933714 2 3 cbr 1000 ------- 2 1.0 3.0 100 100
r 0.934 1 2 cbr 1000 ------- 2 1.0 3.0 102 102
+ 0.934 2 3 cbr 1000 ------- 2 1.0 3.0 102 102
- 0.934 2 3 cbr 1000 ------- 2 1.0 3.0 102 102
+ 0.94 1 2 cbr 1000 ------- 2 1.0 3.0 105 105
- 0.94 1 2 cbr 1000 ------- 2 1.0 3.0 105 105
r 0.941714 2 3 cbr 1000 ------- 2 1.0 3.0 101 101
r 0.942 1 2 cbr 1000 ------- 2 1.0 3.0 103 103
+ 0.942 2 3 cbr 1000 ------- 2 1.0 3.0 103 103
- 0.942 2 3 cbr 1000 ------- 2 1.0 3.0 103 103
+ 0.948 1 2 cbr 1000 ------- 2 1.0 3.0 106 106
- 0.948 1 2 cbr 1000 ------- 2 1.0 3.0 106 106
r 0.949714 2 3 cbr 1000 ------- 2 1.0 3.0 102 102
r 0.95 1 2 cbr 1000 ------- 2 1.0 3.0 104 104
+ 0.95 2 3 cbr 1000 ------- 2 1.0 3.0 104 104
- 0.95 2 3 cbr 1000 ------- 2 1.0 3.0 104 104
+ 0.956 1 2 cbr 1000 ------- 2 1.0 3.0 107 107
- 0.956 1 2 cbr 1000 ------- 2 1.0 3.0 107 107
r 0.957714 2 3 cbr 1000 ------- 2 1.0 3.0 103 103
r 0.958 1 2 cbr 1000 ------- 2 1.0 3.0 105 105
+ 0.958 2 3 cbr 1000 ------- 2 1.0 3.0 105 105
- 0.958 2 3 cbr 1000 ------- 2 1.0 3.0 105 105
+ 0.964 1 2 cbr 1000 ------- 2 1.0 3.0 108 108
- 0.964 1 2 cbr 1000 ------- 2 1.0 3.0 108 108
r 0.965714 2 3 cbr 1000 ------- 2 1.0 3.0 104 104
r 0.966 1 2 cbr 1000 ------- 2 1.0 3.0 106 106
+ 0.966 2 3 cbr 1000 ------- 2 1.0 3.0 106 106
- 0.966 2 3 cbr 1000 ------- 2 1.0 3.0 106 106
+ 0.972 1 2 cbr 1000 ------- 2 1.0 3.0 109 109
- 0.972 1 2 cbr 1000 ------- 2 1.0 3.0 109 109
r 0.973714 2 3 cbr 1000 ------- 2 1.0 3.0 105 105
r 0.974 1 2 cbr 1000 ------- 2 1.0 3.0 107 107
+ 0.974 2 3 cbr 1000 ------- 2 1.0 3.0 107 107
- 0.974 2 3 cbr 1000 ------- 2 1.0 3.0 107 107
+ 0.98 1 2 cbr 1000 ------- 2 1.0 3.0 110 110
- 0.98 1 2 cbr 1000 ------- 2 1.0 3.0 110 110
r 0.981714 2 3 cbr 1000 ------- 2 1.0 3.0 106 106
r 0.982 1 2 cbr 1000 ------- 2 1.0 3.0 108 108
+ 0.982 2 3 cbr 1000 ------- 2 1.0 3.0 108 108
- 0.982 2 3 cbr 1000 ------- 2 1.0 3.0 108 108
+ 0.988 1 2 cbr 1000 ------- 2 1.0 3.0 111 111
- 0.988 1 2 cbr 1000 ------- 2 1.0 3.0 111 111
r 0.989714 2 3 cbr 1000 ------- 2 1.0 3.0 107 107
r 0.99 1 2 cbr 1000 ------- 2 1.0 3.0 109 109
+ 0.99 2 3 cbr 1000 ------- 2 1.0 3.0 109 109
- 0.99 2 3 cbr 1000 ------- 2 1.0 3.0 109 109