+ 0 0 1 tcp 1000 ------- 1 0.0 3.0 0 0
- 0 0 1 tcp 1000 ------- 1 0.0 3.0 0 0
r 0.018 0 1 tcp 1000 ------- 1 0.0 3.0 0 0
+ 0.018 1 2 tcp 1000 ------- 1 0.0 3.0 0 0
- 0.018 1 2 tcp 1000 ------- 1 0.0 3.0 0 0
r 0.033714 1 2 tcp 1000 ------- 1 0.0 3.0 0 0
+ 0.033714 2 3 tcp 1000 ------- 1 0.0 3.0 0 0
- 0.033714 2 3 tcp 1000 ------- 1 0.0 3.0 0 0
r 0.051714 2 3 tcp 1000 ------- 1 0.0 3.0 0 0
+ 0.051714 3 2 ack 40 ------- 1 3.0 0.0 0 1
- 0.051714 3 2 ack 40 ------- 1 3.0 0.0 0 1
r 0.062034 3 2 ack 40 ------- 1 3.0 0.0 0 1
+ 0.062034 2 1 ack 40 ------- 1 3.0 0.0 0 1
- 0.062034 2 1 ack 40 ------- 1 3.0 0.0 0 1
r 0.072263 2 1 ack 40 ------- 1 3.0 0.0 0 1
+ 0.072263 1 0 ack 40 ------- 1 3.0 0.0 0 1
- 0.072263 1 0 ack 40 ------- 1 3.0 0.0 0 1
r 0.082583 1 0 ack 40 ------- 1 3.0 0.0 0 1
+ 0.082583 0 1 tcp 1000 ------- 1 0.0 3.0 1 2
- 0.082583 0 1 tcp 1000 ------- 1 0.0 3.0 1 2
r 0.100583 0 1 tcp 1000 ------- 1 0.0 3.0 1 2
+ 0.100583 1 2 tcp 1000 ------- 1 0.0 3.0 1 2
- 0.100583 1 2 tcp 1000 ------- 1 0.0 3.0 1 2
r 0.116297 1 2 tcp 1000 ------- 1 0.0 3.0 1 2
+ 0.116297 2 3 tcp 1000 ------- 1 0.0 3.0 1 2
- 0.116297 2 3 tcp 1000 ------- 1 0.0 3.0 1 2
r 0.134297 2 3 tcp 1000 ------- 1 0.0 3.0 1 2
+ 0.134297 3 2 ack 40 ------- 1 3.0 0.0 1 3
- 0.134297 3 2 ack 40 ------- 1 3.0 0.0 1 3
r 0.144617 3 2 ack 40 ------- 1 3.0 0.0 1 3
+ 0.144617 2 1 ack 40 ------- 1 3.0 0.0 1 3
- 0.144617 2 1 ack 40 ------- 1 3.0 0.0 1 3
r 0.154846 2 1 ack 40 ------- 1 3.0 0.0 1 3
+ 0.154846 1 0 ack 40 ------- 1 3.0 0.0 1 3
- 0.154846 1 0 ack 40 ------- 1 3.0 0.0 1 3
r 0.165166 1 0 ack 40 ------- 1 3.0 0.0 1 3
+ 0.165166 0 1 tcp 1000 ------- 1 0.0 3.0 2 4
- 0.165166 0 1 tcp 1000 ------- 1 0.0 3.0 2 4
+ 0.165166 0 1 tcp 1000 ------- 1 0.0 3.0 3 5
+ 0.165166 0 1 tcp 1000 ------- 1 0.0 3.0 4 6
- 0.173166 0 1 tcp 1000 ------- 1 0.0 3.0 3 5
- 0.181166 0 1 tcp 1000 ------- 1 0.0 3.0 4 6
r 0.183166 0 1 tcp 1000 ------- 1 0.0 3.0 2 4
+ 0.183166 1 2 tcp 1000 ------- 1 0.0 3.0 2 4
- 0.183166 1 2 tcp 1000 ------- 1 0.0 3.0 2 4
r 0.191166 0 1 tcp 1000 ------- 1 0.0 3.0 3 5
+ 0.191166 1 2 tcp 1000 ------- 1 0.0 3.0 3 5
- 0.191166 1 2 tcp 1000 ------- 1 0.0 3.0 3 5
r 0.19888 1 2 tcp 1000 ------- 1 0.0 3.0 2 4
+ 0.19888 2 3 tcp 1000 ------- 1 0.0 3.0 2 4
- 0.19888 2 3 tcp 1000 ------- 1 0.0 3.0 2 4
r 0.199166 0 1 tcp 1000 ------- 1 0.0 3.0 4 6
+ 0.199166 1 2 tcp 1000 ------- 1 0.0 3.0 4 6
- 0.199166 1 2 tcp 1000 ------- 1 0.0 3.0 4 6
r 0.20688 1 2 tcp 1000 ------- 1 0.0 3.0 3 5
+ 0.20688 2 3 tcp 1000 ------- 1 0.0 3.0 3 5
- 0.20688 2 3 tcp 1000 ------- 1 0.0 3.0 3 5
r 0.21488 1 2 tcp 1000 ------- 1 0.0 3.0 4 6
+ 0.21488 2 3 tcp 1000 ------- 1 0.0 3.0 4 6
- 0.21488 2 3 tcp 1000 ------- 1 0.0 3.0 4 6
r 0.21688 2 3 tcp 1000 ------- 1 0.0 3.0 2 4
+ 0.21688 3 2 ack 40 ------- 1 3.0 0.0 2 7
- 0.21688 3 2 ack 40 ------- 1 3.0 0.0 2 7
r 0.22488 2 3 tcp 1000 ------- 1 0.0 3.0 3 5
+ 0.22488 3 2 ack 40 ------- 1 3.0 0.0 3 8
- 0.22488 3 2 ack 40 ------- 1 3.0 0.0 3 8
r 0.2272 3 2 ack 40 ------- 1 3.0 0.0 2 7
+ 0.2272 2 1 ack 40 ------- 1 3.0 0.0 2 7
- 0.2272 2 1 ack 40 ------- 1 3.0 0.0 2 7
r 0.23288 2 3 tcp 1000 ------- 1 0.0 3.0 4 6
+ 0.23288 3 2 ack 40 ------- 1 3.0 0.0 4 9
- 0.23288 3 2 ack 40 ------- 1 3.0 0.0 4 9
r 0.2352 3 2 ack 40 ------- 1 3.0 0.0 3 8
+ 0.2352 2 1 ack 40 ------- 1 3.0 0.0 3 8
- 0.2352 2 1 ack 40 ------- 1 3.0 0.0 3 8
r 0.237429 2 1 ack 40 ------- 1 3.0 0.0 2 7
+ 0.237429 1 0 ack 40 ------- 1 3.0 0.0 2 7
- 0.237429 1 0 ack 40 ------- 1 3.0 0.0 2 7
r 0.2432 3 2 ack 40 ------- 1 3.0 0.0 4 9
+ 0.2432 2 1 ack 40 ------- 1 3.0 0.0 4 9
- 0.2432 2 1 ack 40 ------- 1 3.0 0.0 4 9
r 0.245429 2 1 ack 40 ------- 1 3.0 0.0 3 8
+ 0.245429 1 0 ack 40 ------- 1 3.0 0.0 3 8
- 0.245429 1 0 ack 40 ------- 1 3.0 0.0 3 8
r 0.247749 1 0 ack 40 ------- 1 3.0 0.0 2 7
+ 0.247749 0 1 tcp 1000 ------- 1 0.0 3.0 5 10
- 0.247749 0 1 tcp 1000 ------- 1 0.0 3.0 5 10
r 0.253429 2 1 ack 40 ------- 1 3.0 0.0 4 9
+ 0.253429 1 0 ack 40 ------- 1 3.0 0.0 4 9
- 0.253429 1 0 ack 40 ------- 1 3.0 0.0 4 9
r 0.255749 1 0 ack 40 ------- 1 3.0 0.0 3 8
+ 0.255749 0 1 tcp 1000 ------- 1 0.0 3.0 6 11
- 0.255749 0 1 tcp 1000 ------- 1 0.0 3.0 6 11
r 0.263749 1 0 ack 40 ------- 1 3.0 0.0 4 9
+ 0.263749 0 1 tcp 1000 ------- 1 0.0 3.0 7 12
- 0.263749 0 1 tcp 1000 ------- 1 0.0 3.0 7 12
r 0.265749 0 1 tcp 1000 ------- 1 0.0 3.0 5 10
+ 0.265749 1 2 tcp 1000 ------- 1 0.0 3.0 5 10
- 0.265749 1 2 tcp 1000 ------- 1 0.0 3.0 5 10
r 0.273749 0 1 tcp 1000 ------- 1 0.0 3.0 6 11
+ 0.273749 1 2 tcp 1000 ------- 1 0.0 3.0 6 11
- 0.273749 1 2 tcp 1000 ------- 1 0.0 3.0 6 11
r 0.281463 1 2 tcp 1000 ------- 1 0.0 3.0 5 10
+ 0.281463 2 3 tcp 1000 ------- 1 0.0 3.0 5 10
- 0.281463 2 3 tcp 1000 ------- 1 0.0 3.0 5 10
r 0.281749 0 1 tcp 1000 ------- 1 0.0 3.0 7 12
+ 0.281749 1 2 tcp 1000 ------- 1 0.0 3.0 7 12
- 0.281749 1 2 tcp 1000 ------- 1 0.0 3.0 7 12
r 0.289463 1 2 tcp 1000 ------- 1 0.0 3.0 6 11
+ 0.289463 2 3 tcp 1000 ------- 1 0.0 3.0 6 11
- 0.289463 2 3 tcp 1000 ------- 1 0.0 3.0 6 11
r 0.297463 1 2 tcp 1000 ------- 1 0.0 3.0 7 12
+ 0.297463 2 3 tcp 1000 ------- 1 0.0 3.0 7 12
- 0.297463 2 3 tcp 1000 ------- 1 0.0 3.0 7 12
r 0.299463 2 3 tcp 1000 ------- 1 0.0 3.0 5 10
+ 0.299463 3 2 ack 40 ------- 1 3.0 0.0 5 13
- 0.299463 3 2 ack 40 ------- 1 3.0 0.0 5 13
r 0.307463 2 3 tcp 1000 ------- 1 0.0 3.0 6 11
+ 0.307463 3 2 ack 40 ------- 1 3.0 0.0 6 14
- 0.307463 3 2 ack 40 ------- 1 3.0 0.0 6 14
r 0.309783 3 2 ack 40 ------- 1 3.0 0.0 5 13
+ 0.309783 2 1 ack 40 ------- 1 3.0 0.0 5 13
- 0.309783 2 1 ack 40 ------- 1 3.0 0.0 5 13
r 0.315463 2 3 tcp 1000 ------- 1 0.0 3.0 7 12
+ 0.315463 3 2 ack 40 ------- 1 3.0 0.0 7 15
- 0.315463 3 2 ack 40 ------- 1 3.0 0.0 7 15
r 0.317783 3 2 ack 40 ------- 1 3.0 0.0 6 14
+ 0.317783 2 1 ack 40 ------- 1 3.0 0.0 6 14
- 0.317783 2 1 ack 40 ------- 1 3.0 0.0 6 14
r 0.320011 2 1 ack 40 ------- 1 3.0 0.0 5 13
+ 0.320011 1 0 ack 40 ------- 1 3.0 0.0 5 13
- 0.320011 1 0 ack 40 ------- 1 3.0 0.0 5 13
r 0.325783 3 2 ack 40 ------- 1 3.0 0.0 7 15
+ 0.325783 2 1 ack 40 ------- 1 3.0 0.0 7 15
- 0.325783 2 1 ack 40 ------- 1 3.0 0.0 7 15
r 0.328011 2 1 ack 40 ------- 1 3.0 0.0 6 14
+ 0.328011 1 0 ack 40 ------- 1 3.0 0.0 6 14
- 0.328011 1 0 ack 40 ------- 1 3.0 0.0 6 14
r 0.330331 1 0 ack 40 ------- 1 3.0 0.0 5 13
+ 0.330331 0 1 tcp 1000 ------- 1 0.0 3.0 8 16
- 0.330331 0 1 tcp 1000 ------- 1 0.0 3.0 8 16
+ 0.330331 0 1 tcp 1000 ------- 1 0.0 3.0 9 17
r 0.336011 2 1 ack 40 ------- 1 3.0 0.0 7 15
+ 0.336011 1 0 ack 40 ------- 1 3.0 0.0 7 15
- 0.336011 1 0 ack 40 ------- 1 3.0 0.0 7 15
r 0.338331 1 0 ack 40 ------- 1 3.0 0.0 6 14
+ 0.338331 0 1 tcp 1000 ------- 1 0.0 3.0 10 18
+ 0.338331 0 1 tcp 1000 ------- 1 0.0 3.0 11 19
- 0.338331 0 1 tcp 1000 ------- 1 0.0 3.0 9 17
r 0.346331 1 0 ack 40 ------- 1 3.0 0.0 7 15
+ 0.346331 0 1 tcp 1000 ------- 1 0.0 3.0 12 20
+ 0.346331 0 1 tcp 1000 ------- 1 0.0 3.0 13 21
- 0.346331 0 1 tcp 1000 ------- 1 0.0 3.0 10 18
r 0.348331 0 1 tcp 1000 ------- 1 0.0 3.0 8 16
+ 0.348331 1 2 tcp 1000 ------- 1 0.0 3.0 8 16
- 0.348331 1 2 tcp 1000 ------- 1 0.0 3.0 8 16
- 0.354331 0 1 tcp 1000 ------- 1 0.0 3.0 11 19
r 0.356331 0 1 tcp 1000 ------- 1 0.0 3.0 9 17
+ 0.356331 1 2 tcp 1000 ------- 1 0.0 3.0 9 17
- 0.356331 1 2 tcp 1000 ------- 1 0.0 3.0 9 17
- 0.362331 0 1 tcp 1000 ------- 1 0.0 3.0 12 20
r 0.364046 1 2 tcp 1000 ------- 1 0.0 3.0 8 16
+ 0.364046 2 3 tcp 1000 ------- 1 0.0 3.0 8 16
- 0.364046 2 3 tcp 1000 ------- 1 0.0 3.0 8 16
r 0.364331 0 1 tcp 1000 ------- 1 0.0 3.0 10 18
+ 0.364331 1 2 tcp 1000 ------- 1 0.0 3.0 10 18
- 0.364331 1 2 tcp 1000 ------- 1 0.0 3.0 10 18
- 0.370331 0 1 tcp 1000 ------- 1 0.0 3.0 13 21
r 0.372046 1 2 tcp 1000 ------- 1 0.0 3.0 9 17
+ 0.372046 2 3 tcp 1000 ------- 1 0.0 3.0 9 17
- 0.372046 2 3 tcp 1000 ------- 1 0.0 3.0 9 17
r 0.372331 0 1 tcp 1000 ------- 1 0.0 3.0 11 19
+ 0.372331 1 2 tcp 1000 ------- 1 0.0 3.0 11 19
- 0.372331 1 2 tcp 1000 ------- 1 0.0 3.0 11 19
r 0.380046 1 2 tcp 1000 ------- 1 0.0 3.0 10 18
+ 0.380046 2 3 tcp 1000 ------- 1 0.0 3.0 10 18
- 0.380046 2 3 tcp 1000 ------- 1 0.0 3.0 10 18
r 0.380331 0 1 tcp 1000 ------- 1 0.0 3.0 12 20
+ 0.380331 1 2 tcp 1000 ------- 1 0.0 3.0 12 20
- 0.380331 1 2 tcp 1000 ------- 1 0.0 3.0 12 20
r 0.382046 2 3 tcp 1000 ------- 1 0.0 3.0 8 16
+ 0.382046 3 2 ack 40 ------- 1 3.0 0.0 8 22
- 0.382046 3 2 ack 40 ------- 1 3.0 0.0 8 22
r 0.388046 1 2 tcp 1000 ------- 1 0.0 3.0 11 19
+ 0.388046 2 3 tcp 1000 ------- 1 0.0 3.0 11 19
- 0.388046 2 3 tcp 1000 ------- 1 0.0 3.0 11 19
r 0.388331 0 1 tcp 1000 ------- 1 0.0 3.0 13 21
+ 0.388331 1 2 tcp 1000 ------- 1 0.0 3.0 13 21
- 0.388331 1 2 tcp 1000 ------- 1 0.0 3.0 13 21
r 0.390046 2 3 tcp 1000 ------- 1 0.0 3.0 9 17
+ 0.390046 3 2 ack 40 ------- 1 3.0 0.0 9 23
- 0.390046 3 2 ack 40 ------- 1 3.0 0.0 9 23
r 0.392366 3 2 ack 40 ------- 1 3.0 0.0 8 22
+ 0.392366 2 1 ack 40 ------- 1 3.0 0.0 8 22
- 0.392366 2 1 ack 40 ------- 1 3.0 0.0 8 22
r 0.396046 1 2 tcp 1000 ------- 1 0.0 3.0 12 20
+ 0.396046 2 3 tcp 1000 ------- 1 0.0 3.0 12 20
- 0.396046 2 3 tcp 1000 ------- 1 0.0 3.0 12 20
r 0.398046 2 3 tcp 1000 ------- 1 0.0 3.0 10 18
+ 0.398046 3 2 ack 40 ------- 1 3.0 0.0 10 24
- 0.398046 3 2 ack 40 ------- 1 3.0 0.0 10 24
r 0.400366 3 2 ack 40 ------- 1 3.0 0.0 9 23
+ 0.400366 2 1 ack 40 ------- 1 3.0 0.0 9 23
- 0.400366 2 1 ack 40 ------- 1 3.0 0.0 9 23
r 0.402594 2 1 ack 40 ------- 1 3.0 0.0 8 22
+ 0.402594 1 0 ack 40 ------- 1 3.0 0.0 8 22
- 0.402594 1 0 ack 40 ------- 1 3.0 0.0 8 22
r 0.404046 1 2 tcp 1000 ------- 1 0.0 3.0 13 21
+ 0.404046 2 3 tcp 1000 ------- 1 0.0 3.0 13 21
- 0.404046 2 3 tcp 1000 ------- 1 0.0 3.0 13 21
r 0.406046 2 3 tcp 1000 ------- 1 0.0 3.0 11 19
+ 0.406046 3 2 ack 40 ------- 1 3.0 0.0 11 25
- 0.406046 3 2 ack 40 ------- 1 3.0 0.0 11 25
r 0.408366 3 2 ack 40 ------- 1 3.0 0.0 10 24
+ 0.408366 2 1 ack 40 ------- 1 3.0 0.0 10 24
- 0.408366 2 1 ack 40 ------- 1 3.0 0.0 10 24
r 0.410594 2 1 ack 40 ------- 1 3.0 0.0 9 23
+ 0.410594 1 0 ack 40 ------- 1 3.0 0.0 9 23
- 0.410594 1 0 ack 40 ------- 1 3.0 0.0 9 23
r 0.412914 1 0 ack 40 ------- 1 3.0 0.0 8 22
+ 0.412914 0 1 tcp 1000 ------- 1 0.0 3.0 14 26
- 0.412914 0 1 tcp 1000 ------- 1 0.0 3.0 14 26
r 0.414046 2 3 tcp 1000 ------- 1 0.0 3.0 12 20
+ 0.414046 3 2 ack 40 ------- 1 3.0 0.0 12 27
- 0.414046 3 2 ack 40 ------- 1 3.0 0.0 12 27
r 0.416366 3 2 ack 40 ------- 1 3.0 0.0 11 25
+ 0.416366 2 1 ack 40 ------- 1 3.0 0.0 11 25
- 0.416366 2 1 ack 40 ------- 1 3.0 0.0 11 25
r 0.418594 2 1 ack 40 ------- 1 3.0 0.0 10 24
+ 0.418594 1 0 ack 40 ------- 1 3.0 0.0 10 24
- 0.418594 1 0 ack 40 ------- 1 3.0 0.0 10 24
r 0.420914 1 0 ack 40 ------- 1 3.0 0.0 9 23
+ 0.420914 0 1 tcp 1000 ------- 1 0.0 3.0 15 28
- 0.420914 0 1 tcp 1000 ------- 1 0.0 3.0 15 28
r 0.422046 2 3 tcp 1000 ------- 1 0.0 3.0 13 21
+ 0.422046 3 2 ack 40 ------- 1 3.0 0.0 13 29
- 0.422046 3 2 ack 40 ------- 1 3.0 0.0 13 29
r 0.424366 3 2 ack 40 ------- 1 3.0 0.0 12 27
+ 0.424366 2 1 ack 40 ------- 1 3.0 0.0 12 27
- 0.424366 2 1 ack 40 ------- 1 3.0 0.0 12 27
r 0.426594 2 1 ack 40 ------- 1 3.0 0.0 11 25
+ 0.426594 1 0 ack 40 ------- 1 3.0 0.0 11 25
- 0.426594 1 0 ack 40 ------- 1 3.0 0.0 11 25
r 0.428914 1 0 ack 40 ------- 1 3.0 0.0 10 24
+ 0.428914 0 1 tcp 1000 ------- 1 0.0 3.0 16 30
- 0.428914 0 1 tcp 1000 ------- 1 0.0 3.0 16 30
r 0.430914 0 1 tcp 1000 ------- 1 0.0 3.0 14 26
+ 0.430914 1 2 tcp 1000 ------- 1 0.0 3.0 14 26
- 0.430914 1 2 tcp 1000 ------- 1 0.0 3.0 14 26
r 0.432366 3 2 ack 40 ------- 1 3.0 0.0 13 29
+ 0.432366 2 1 ack 40 ------- 1 3.0 0.0 13 29
- 0.432366 2 1 ack 40 ------- 1 3.0 0.0 13 29
r 0.434594 2 1 ack 40 ------- 1 3.0 0.0 12 27
+ 0.434594 1 0 ack 40 ------- 1 3.0 0.0 12 27
- 0.434594 1 0 ack 40 ------- 1 3.0 0.0 12 27
r 0.436914 1 0 ack 40 ------- 1 3.0 0.0 11 25
+ 0.436914 0 1 tcp 1000 ------- 1 0.0 3.0 17 31
- 0.436914 0 1 tcp 1000 ------- 1 0.0 3.0 17 31
r 0.438914 0 1 tcp 1000 ------- 1 0.0 3.0 15 28
+ 0.438914 1 2 tcp 1000 ------- 1 0.0 3.0 15 28
- 0.438914 1 2 tcp 1000 ------- 1 0.0 3.0 15 28
r 0.442594 2 1 ack 40 ------- 1 3.0 0.0 13 29
+ 0.442594 1 0 ack 40 ------- 1 3.0 0.0 13 29
- 0.442594 1 0 ack 40 ------- 1 3.0 0.0 13 29
r 0.444914 1 0 ack 40 ------- 1 3.0 0.0 12 27
+ 0.444914 0 1 tcp 1000 ------- 1 0.0 3.0 18 32
- 0.444914 0 1 tcp 1000 ------- 1 0.0 3.0 18 32
r 0.446629 1 2 tcp 1000 ------- 1 0.0 3.0 14 26
+ 0.446629 2 3 tcp 1000 ------- 1 0.0 3.0 14 26
- 0.446629 2 3 tcp 1000 ------- 1 0.0 3.0 14 26
r 0.446914 0 1 tcp 1000 ------- 1 0.0 3.0 16 30
+ 0.446914 1 2 tcp 1000 ------- 1 0.0 3.0 16 30
- 0.446914 1 2 tcp 1000 ------- 1 0.0 3.0 16 30
r 0.452914 1 0 ack 40 ------- 1 3.0 0.0 13 29
+ 0.452914 0 1 tcp 1000 ------- 1 0.0 3.0 19 33
- 0.452914 0 1 tcp 1000 ------- 1 0.0 3.0 19 33
r 0.454629 1 2 tcp 1000 ------- 1 0.0 3.0 15 28
+ 0.454629 2 3 tcp 1000 ------- 1 0.0 3.0 15 28
- 0.454629 2 3 tcp 1000 ------- 1 0.0 3.0 15 28
r 0.454914 0 1 tcp 1000 ------- 1 0.0 3.0 17 31
+ 0.454914 1 2 tcp 1000 ------- 1 0.0 3.0 17 31
- 0.454914 1 2 tcp 1000 ------- 1 0.0 3.0 17 31
r 0.462629 1 2 tcp 1000 ------- 1 0.0 3.0 16 30
+ 0.462629 2 3 tcp 1000 ------- 1 0.0 3.0 16 30
- 0.462629 2 3 tcp 1000 ------- 1 0.0 3.0 16 30
r 0.462914 0 1 tcp 1000 ------- 1 0.0 3.0 18 32
+ 0.462914 1 2 tcp 1000 ------- 1 0.0 3.0 18 32
- 0.462914 1 2 tcp 1000 ------- 1 0.0 3.0 18 32
r 0.464629 2 3 tcp 1000 ------- 1 0.0 3.0 14 26
+ 0.464629 3 2 ack 40 ------- 1 3.0 0.0 14 34
- 0.464629 3 2 ack 40 ------- 1 3.0 0.0 14 34
r 0.470629 1 2 tcp 1000 ------- 1 0.0 3.0 17 31
+ 0.470629 2 3 tcp 1000 ------- 1 0.0 3.0 17 31
- 0.470629 2 3 tcp 1000 ------- 1 0.0 3.0 17 31
r 0.470914 0 1 tcp 1000 ------- 1 0.0 3.0 19 33
+ 0.470914 1 2 tcp 1000 ------- 1 0.0 3.0 19 33
- 0.470914 1 2 tcp 1000 ------- 1 0.0 3.0 19 33
r 0.472629 2 3 tcp 1000 ------- 1 0.0 3.0 15 28
+ 0.472629 3 2 ack 40 ------- 1 3.0 0.0 15 35
- 0.472629 3 2 ack 40 ------- 1 3.0 0.0 15 35
r 0.474949 3 2 ack 40 ------- 1 3.0 0.0 14 34
+ 0.474949 2 1 ack 40 ------- 1 3.0 0.0 14 34
- 0.474949 2 1 ack 40 ------- 1 3.0 0.0 14 34
r 0.478629 1 2 tcp 1000 ------- 1 0.0 3.0 18 32
+ 0.478629 2 3 tcp 1000 ------- 1 0.0 3.0 18 32
- 0.478629 2 3 tcp 1000 ------- 1 0.0 3.0 18 32
r 0.480629 2 3 tcp 1000 ------- 1 0.0 3.0 16 30
+ 0.480629 3 2 ack 40 ------- 1 3.0 0.0 16 36
- 0.480629 3 2 ack 40 ------- 1 3.0 0.0 16 36
r 0.482949 3 2 ack 40 ------- 1 3.0 0.0 15 35
+ 0.482949 2 1 ack 40 ------- 1 3.0 0.0 15 35
- 0.482949 2 1 ack 40 ------- 1 3.0 0.0 15 35
r 0.485177 2 1 ack 40 ------- 1 3.0 0.0 14 34
+ 0.485177 1 0 ack 40 ------- 1 3.0 0.0 14 34
- 0.485177 1 0 ack 40 ------- 1 3.0 0.0 14 34
r 0.486629 1 2 tcp 1000 ------- 1 0.0 3.0 19 33
+ 0.486629 2 3 tcp 1000 ------- 1 0.0 3.0 19 33
- 0.486629 2 3 tcp 1000 ------- 1 0.0 3.0 19 33
r 0.488629 2 3 tcp 1000 ------- 1 0.0 3.0 17 31
+ 0.488629 3 2 ack 40 ------- 1 3.0 0.0 17 37
- 0.488629 3 2 ack 40 ------- 1 3.0 0.0 17 37
r 0.490949 3 2 ack 40 ------- 1 3.0 0.0 16 36
+ 0.490949 2 1 ack 40 ------- 1 3.0 0.0 16 36
- 0.490949 2 1 ack 40 ------- 1 3.0 0.0 16 36
r 0.493177 2 1 ack 40 ------- 1 3.0 0.0 15 35
+ 0.493177 1 0 ack 40 ------- 1 3.0 0.0 15 35
- 0.493177 1 0 ack 40 ------- 1 3.0 0.0 15 35
r 0.495497 1 0 ack 40 ------- 1 3.0 0.0 14 34
+ 0.495497 0 1 tcp 1000 ------- 1 0.0 3.0 20 38
- 0.495497 0 1 tcp 1000 ------- 1 0.0 3.0 20 38
+ 0.495497 0 1 tcp 1000 ------- 1 0.0 3.0 21 39
r 0.496629 2 3 tcp 1000 ------- 1 0.0 3.0 18 32
+ 0.496629 3 2 ack 40 ------- 1 3.0 0.0 18 40
- 0.496629 3 2 ack 40 ------- 1 3.0 0.0 18 40
r 0.498949 3 2 ack 40 ------- 1 3.0 0.0 17 37
+ 0.498949 2 1 ack 40 ------- 1 3.0 0.0 17 37
- 0.498949 2 1 ack 40 ------- 1 3.0 0.0 17 37
r 0.501177 2 1 ack 40 ------- 1 3.0 0.0 16 36
+ 0.501177 1 0 ack 40 ------- 1 3.0 0.0 16 36
- 0.501177 1 0 ack 40 ------- 1 3.0 0.0 16 36
r 0.503497 1 0 ack 40 ------- 1 3.0 0.0 15 35
+ 0.503497 0 1 tcp 1000 ------- 1 0.0 3.0 22 41
+ 0.503497 0 1 tcp 1000 ------- 1 0.0 3.0 23 42
- 0.503497 0 1 tcp 1000 ------- 1 0.0 3.0 21 39
r 0.504629 2 3 tcp 1000 ------- 1 0.0 3.0 19 33
+ 0.504629 3 2 ack 40 ------- 1 3.0 0.0 19 43
- 0.504629 3 2 ack 40 ------- 1 3.0 0.0 19 43
r 0.506949 3 2 ack 40 ------- 1 3.0 0.0 18 40
+ 0.506949 2 1 ack 40 ------- 1 3.0 0.0 18 40
- 0.506949 2 1 ack 40 ------- 1 3.0 0.0 18 40
r 0.509177 2 1 ack 40 ------- 1 3.0 0.0 17 37
+ 0.509177 1 0 ack 40 ------- 1 3.0 0.0 17 37
- 0.509177 1 0 ack 40 ------- 1 3.0 0.0 17 37
r 0.511497 1 0 ack 40 ------- 1 3.0 0.0 16 36
+ 0.511497 0 1 tcp 1000 ------- 1 0.0 3.0 24 44
+ 0.511497 0 1 tcp 1000 ------- 1 0.0 3.0 25 45
- 0.511497 0 1 tcp 1000 ------- 1 0.0 3.0 22 41
r 0.513497 0 1 tcp 1000 ------- 1 0.0 3.0 20 38
+ 0.513497 1 2 tcp 1000 ------- 1 0.0 3.0 20 38
- 0.513497 1 2 tcp 1000 ------- 1 0.0 3.0 20 38
r 0.514949 3 2 ack 40 ------- 1 3.0 0.0 19 43
+ 0.514949 2 1 ack 40 ------- 1 3.0 0.0 19 43
- 0.514949 2 1 ack 40 ------- 1 3.0 0.0 19 43
r 0.517177 2 1 ack 40 ------- 1 3.0 0.0 18 40
+ 0.517177 1 0 ack 40 ------- 1 3.0 0.0 18 40
- 0.517177 1 0 ack 40 ------- 1 3.0 0.0 18 40
r 0.519497 1 0 ack 40 ------- 1 3.0 0.0 17 37
+ 0.519497 0 1 tcp 1000 ------- 1 0.0 3.0 26 46
+ 0.519497 0 1 tcp 1000 ------- 1 0.0 3.0 27 47
- 0.519497 0 1 tcp 1000 ------- 1 0.0 3.0 23 42
r 0.521497 0 1 tcp 1000 ------- 1 0.0 3.0 21 39
+ 0.521497 1 2 tcp 1000 ------- 1 0.0 3.0 21 39
- 0.521497 1 2 tcp 1000 ------- 1 0.0 3.0 21 39
r 0.525177 2 1 ack 40 ------- 1 3.0 0.0 19 43
+ 0.525177 1 0 ack 40 ------- 1 3.0 0.0 19 43
- 0.525177 1 0 ack 40 ------- 1 3.0 0.0 19 43
- 0.527497 0 1 tcp 1000 ------- 1 0.0 3.0 24 44
r 0.527497 1 0 ack 40 ------- 1 3.0 0.0 18 40
+ 0.527497 0 1 tcp 1000 ------- 1 0.0 3.0 28 48
+ 0.527497 0 1 tcp 1000 ------- 1 0.0 3.0 29 49
r 0.529211 1 2 tcp 1000 ------- 1 0.0 3.0 20 38
+ 0.529211 2 3 tcp 1000 ------- 1 0.0 3.0 20 38
- 0.529211 2 3 tcp 1000 ------- 1 0.0 3.0 20 38
r 0.529497 0 1 tcp 1000 ------- 1 0.0 3.0 22 41
+ 0.529497 1 2 tcp 1000 ------- 1 0.0 3.0 22 41
- 0.529497 1 2 tcp 1000 ------- 1 0.0 3.0 22 41
r 0.535497 1 0 ack 40 ------- 1 3.0 0.0 19 43
+ 0.535497 0 1 tcp 1000 ------- 1 0.0 3.0 30 50
+ 0.535497 0 1 tcp 1000 ------- 1 0.0 3.0 31 51
- 0.535497 0 1 tcp 1000 ------- 1 0.0 3.0 25 45
r 0.537211 1 2 tcp 1000 ------- 1 0.0 3.0 21 39
+ 0.537211 2 3 tcp 1000 ------- 1 0.0 3.0 21 39
- 0.537211 2 3 tcp 1000 ------- 1 0.0 3.0 21 39
r 0.537497 0 1 tcp 1000 ------- 1 0.0 3.0 23 42
+ 0.537497 1 2 tcp 1000 ------- 1 0.0 3.0 23 42
- 0.537497 1 2 tcp 1000 ------- 1 0.0 3.0 23 42
- 0.543497 0 1 tcp 1000 ------- 1 0.0 3.0 26 46
r 0.545211 1 2 tcp 1000 ------- 1 0.0 3.0 22 41
+ 0.545211 2 3 tcp 1000 ------- 1 0.0 3.0 22 41
- 0.545211 2 3 tcp 1000 ------- 1 0.0 3.0 22 41
r 0.545497 0 1 tcp 1000 ------- 1 0.0 3.0 24 44
+ 0.545497 1 2 tcp 1000 ------- 1 0.0 3.0 24 44
- 0.545497 1 2 tcp 1000 ------- 1 0.0 3.0 24 44
r 0.547211 2 3 tcp 1000 ------- 1 0.0 3.0 20 38
+ 0.547211 3 2 ack 40 ------- 1 3.0 0.0 20 52
- 0.547211 3 2 ack 40 ------- 1 3.0 0.0 20 52
- 0.551497 0 1 tcp 1000 ------- 1 0.0 3.0 27 47
r 0.553211 1 2 tcp 1000 ------- 1 0.0 3.0 23 42
+ 0.553211 2 3 tcp 1000 ------- 1 0.0 3.0 23 42
- 0.553211 2 3 tcp 1000 ------- 1 0.0 3.0 23 42
r 0.553497 0 1 tcp 1000 ------- 1 0.0 3.0 25 45
+ 0.553497 1 2 tcp 1000 ------- 1 0.0 3.0 25 45
- 0.553497 1 2 tcp 1000 ------- 1 0.0 3.0 25 45
r 0.555211 2 3 tcp 1000 ------- 1 0.0 3.0 21 39
+ 0.555211 3 2 ack 40 ------- 1 3.0 0.0 21 53
- 0.555211 3 2 ack 40 ------- 1 3.0 0.0 21 53
r 0.557531 3 2 ack 40 ------- 1 3.0 0.0 20 52
+ 0.557531 2 1 ack 40 ------- 1 3.0 0.0 20 52
- 0.557531 2 1 ack 40 ------- 1 3.0 0.0 20 52
- 0.559497 0 1 tcp 1000 ------- 1 0.0 3.0 28 48
r 0.561211 1 2 tcp 1000 ------- 1 0.0 3.0 24 44
+ 0.561211 2 3 tcp 1000 ------- 1 0.0 3.0 24 44
- 0.561211 2 3 tcp 1000 ------- 1 0.0 3.0 24 44
r 0.561497 0 1 tcp 1000 ------- 1 0.0 3.0 26 46
+ 0.561497 1 2 tcp 1000 ------- 1 0.0 3.0 26 46
- 0.561497 1 2 tcp 1000 ------- 1 0.0 3.0 26 46
r 0.563211 2 3 tcp 1000 ------- 1 0.0 3.0 22 41
+ 0.563211 3 2 ack 40 ------- 1 3.0 0.0 22 54
- 0.563211 3 2 ack 40 ------- 1 3.0 0.0 22 54
r 0.565531 3 2 ack 40 ------- 1 3.0 0.0 21 53
+ 0.565531 2 1 ack 40 ------- 1 3.0 0.0 21 53
- 0.565531 2 1 ack 40 ------- 1 3.0 0.0 21 53
- 0.567497 0 1 tcp 1000 ------- 1 0.0 3.0 29 49
r 0.56776 2 1 ack 40 ------- 1 3.0 0.0 20 52
+ 0.56776 1 0 ack 40 ------- 1 3.0 0.0 20 52
- 0.56776 1 0 ack 40 ------- 1 3.0 0.0 20 52
r 0.569211 1 2 tcp 1000 ------- 1 0.0 3.0 25 45
+ 0.569211 2 3 tcp 1000 ------- 1 0.0 3.0 25 45
- 0.569211 2 3 tcp 1000 ------- 1 0.0 3.0 25 45
r 0.569497 0 1 tcp 1000 ------- 1 0.0 3.0 27 47
+ 0.569497 1 2 tcp 1000 ------- 1 0.0 3.0 27 47
- 0.569497 1 2 tcp 1000 ------- 1 0.0 3.0 27 47
r 0.571211 2 3 tcp 1000 ------- 1 0.0 3.0 23 42
+ 0.571211 3 2 ack 40 ------- 1 3.0 0.0 23 55
- 0.571211 3 2 ack 40 ------- 1 3.0 0.0 23 55
r 0.573531 3 2 ack 40 ------- 1 3.0 0.0 22 54
+ 0.573531 2 1 ack 40 ------- 1 3.0 0.0 22 54
- 0.573531 2 1 ack 40 ------- 1 3.0 0.0 22 54
- 0.575497 0 1 tcp 1000 ------- 1 0.0 3.0 30 50
r 0.57576 2 1 ack 40 ------- 1 3.0 0.0 21 53
+ 0.57576 1 0 ack 40 ------- 1 3.0 0.0 21 53
- 0.57576 1 0 ack 40 ------- 1 3.0 0.0 21 53
r 0.577211 1 2 tcp 1000 ------- 1 0.0 3.0 26 46
+ 0.577211 2 3 tcp 1000 ------- 1 0.0 3.0 26 46
- 0.577211 2 3 tcp 1000 ------- 1 0.0 3.0 26 46
r 0.577497 0 1 tcp 1000 ------- 1 0.0 3.0 28 48
+ 0.577497 1 2 tcp 1000 ------- 1 0.0 3.0 28 48
- 0.577497 1 2 tcp 1000 ------- 1 0.0 3.0 28 48
r 0.57808 1 0 ack 40 ------- 1 3.0 0.0 20 52
+ 0.57808 0 1 tcp 1000 ------- 1 0.0 3.0 32 56
r 0.579211 2 3 tcp 1000 ------- 1 0.0 3.0 24 44
+ 0.579211 3 2 ack 40 ------- 1 3.0 0.0 24 57
- 0.579211 3 2 ack 40 ------- 1 3.0 0.0 24 57
r 0.581531 3 2 ack 40 ------- 1 3.0 0.0 23 55
+ 0.581531 2 1 ack 40 ------- 1 3.0 0.0 23 55
- 0.581531 2 1 ack 40 ------- 1 3.0 0.0 23 55
- 0.583497 0 1 tcp 1000 ------- 1 0.0 3.0 31 51
r 0.58376 2 1 ack 40 ------- 1 3.0 0.0 22 54
+ 0.58376 1 0 ack 40 ------- 1 3.0 0.0 22 54
- 0.58376 1 0 ack 40 ------- 1 3.0 0.0 22 54
r 0.585211 1 2 tcp 1000 ------- 1 0.0 3.0 27 47
+ 0.585211 2 3 tcp 1000 ------- 1 0.0 3.0 27 47
- 0.585211 2 3 tcp 1000 ------- 1 0.0 3.0 27 47
r 0.585497 0 1 tcp 1000 ------- 1 0.0 3.0 29 49
+ 0.585497 1 2 tcp 1000 ------- 1 0.0 3.0 29 49
- 0.585497 1 2 tcp 1000 ------- 1 0.0 3.0 29 49
r 0.58608 1 0 ack 40 ------- 1 3.0 0.0 21 53
+ 0.58608 0 1 tcp 1000 ------- 1 0.0 3.0 33 58
r 0.587211 2 3 tcp 1000 ------- 1 0.0 3.0 25 45
+ 0.587211 3 2 ack 40 ------- 1 3.0 0.0 25 59
- 0.587211 3 2 ack 40 ------- 1 3.0 0.0 25 59
r 0.589531 3 2 ack 40 ------- 1 3.0 0.0 24 57
+ 0.589531 2 1 ack 40 ------- 1 3.0 0.0 24 57
- 0.589531 2 1 ack 40 ------- 1 3.0 0.0 24 57
- 0.591497 0 1 tcp 1000 ------- 1 0.0 3.0 32 56
r 0.59176 2 1 ack 40 ------- 1 3.0 0.0 23 55
+ 0.59176 1 0 ack 40 ------- 1 3.0 0.0 23 55
- 0.59176 1 0 ack 40 ------- 1 3.0 0.0 23 55
r 0.593211 1 2 tcp 1000 ------- 1 0.0 3.0 28 48
+ 0.593211 2 3 tcp 1000 ------- 1 0.0 3.0 28 48
- 0.593211 2 3 tcp 1000 ------- 1 0.0 3.0 28 48
r 0.593497 0 1 tcp 1000 ------- 1 0.0 3.0 30 50
+ 0.593497 1 2 tcp 1000 ------- 1 0.0 3.0 30 50
- 0.593497 1 2 tcp 1000 ------- 1 0.0 3.0 30 50
r 0.59408 1 0 ack 40 ------- 1 3.0 0.0 22 54
+ 0.59408 0 1 tcp 1000 ------- 1 0.0 3.0 34 60
r 0.595211 2 3 tcp 1000 ------- 1 0.0 3.0 26 46
+ 0.595211 3 2 ack 40 ------- 1 3.0 0.0 26 61
- 0.595211 3 2 ack 40 ------- 1 3.0 0.0 26 61
r 0.597531 3 2 ack 40 ------- 1 3.0 0.0 25 59
+ 0.597531 2 1 ack 40 ------- 1 3.0 0.0 25 59
- 0.597531 2 1 ack 40 ------- 1 3.0 0.0 25 59
- 0.599497 0 1 tcp 1000 ------- 1 0.0 3.0 33 58
r 0.59976 2 1 ack 40 ------- 1 3.0 0.0 24 57
+ 0.59976 1 0 ack 40 ------- 1 3.0 0.0 24 57
- 0.59976 1 0 ack 40 ------- 1 3.0 0.0 24 57
r 0.601211 1 2 tcp 1000 ------- 1 0.0 3.0 29 49
+ 0.601211 2 3 tcp 1000 ------- 1 0.0 3.0 29 49
- 0.601211 2 3 tcp 1000 ------- 1 0.0 3.0 29 49
r 0.601497 0 1 tcp 1000 ------- 1 0.0 3.0 31 51
+ 0.601497 1 2 tcp 1000 ------- 1 0.0 3.0 31 51
- 0.601497 1 2 tcp 1000 ------- 1 0.0 3.0 31 51
r 0.60208 1 0 ack 40 ------- 1 3.0 0.0 23 55
+ 0.60208 0 1 tcp 1000 ------- 1 0.0 3.0 35 62
r 0.603211 2 3 tcp 1000 ------- 1 0.0 3.0 27 47
+ 0.603211 3 2 ack 40 ------- 1 3.0 0.0 27 63
- 0.603211 3 2 ack 40 ------- 1 3.0 0.0 27 63
r 0.605531 3 2 ack 40 ------- 1 3.0 0.0 26 61
+ 0.605531 2 1 ack 40 ------- 1 3.0 0.0 26 61
- 0.605531 2 1 ack 40 ------- 1 3.0 0.0 26 61
- 0.607497 0 1 tcp 1000 ------- 1 0.0 3.0 34 60
r 0.60776 2 1 ack 40 ------- 1 3.0 0.0 25 59
+ 0.60776 1 0 ack 40 ------- 1 3.0 0.0 25 59
- 0.60776 1 0 ack 40 ------- 1 3.0 0.0 25 59
r 0.609211 1 2 tcp 1000 ------- 1 0.0 3.0 30 50
+ 0.609211 2 3 tcp 1000 ------- 1 0.0 3.0 30 50
- 0.609211 2 3 tcp 1000 ------- 1 0.0 3.0 30 50
r 0.609497 0 1 tcp 1000 ------- 1 0.0 3.0 32 56
+ 0.609497 1 2 tcp 1000 ------- 1 0.0 3.0 32 56
- 0.609497 1 2 tcp 1000 ------- 1 0.0 3.0 32 56
r 0.61008 1 0 ack 40 ------- 1 3.0 0.0 24 57
+ 0.61008 0 1 tcp 1000 ------- 1 0.0 3.0 36 64
r 0.611211 2 3 tcp 1000 ------- 1 0.0 3.0 28 48
+ 0.611211 3 2 ack 40 ------- 1 3.0 0.0 28 65
- 0.611211 3 2 ack 40 ------- 1 3.0 0.0 28 65
r 0.613531 3 2 ack 40 ------- 1 3.0 0.0 27 63
+ 0.613531 2 1 ack 40 ------- 1 3.0 0.0 27 63
- 0.613531 2 1 ack 40 ------- 1 3.0 0.0 27 63
- 0.615497 0 1 tcp 1000 ------- 1 0.0 3.0 35 62
r 0.61576 2 1 ack 40 ------- 1 3.0 0.0 26 61
+ 0.61576 1 0 ack 40 ------- 1 3.0 0.0 26 61
- 0.61576 1 0 ack 40 ------- 1 3.0 0.0 26 61
r 0.617211 1 2 tcp 1000 ------- 1 0.0 3.0 31 51
+ 0.617211 2 3 tcp 1000 ------- 1 0.0 3.0 31 51
- 0.617211 2 3 tcp 1000 ------- 1 0.0 3.0 31 51
r 0.617497 0 1 tcp 1000 ------- 1 0.0 3.0 33 58
+ 0.617497 1 2 tcp 1000 ------- 1 0.0 3.0 33 58
- 0.617497 1 2 tcp 1000 ------- 1 0.0 3.0 33 58
r 0.61808 1 0 ack 40 ------- 1 3.0 0.0 25 59
+ 0.61808 0 1 tcp 1000 ------- 1 0.0 3.0 37 66
r 0.619211 2 3 tcp 1000 ------- 1 0.0 3.0 29 49
+ 0.619211 3 2 ack 40 ------- 1 3.0 0.0 29 67
- 0.619211 3 2 ack 40 ------- 1 3.0 0.0 29 67
r 0.621531 3 2 ack 40 ------- 1 3.0 0.0 28 65
+ 0.621531 2 1 ack 40 ------- 1 3.0 0.0 28 65
- 0.621531 2 1 ack 40 ------- 1 3.0 0.0 28 65
- 0.623497 0 1 tcp 1000 ------- 1 0.0 3.0 36 64
r 0.62376 2 1 ack 40 ------- 1 3.0 0.0 27 63
+ 0.62376 1 0 ack 40 ------- 1 3.0 0.0 27 63
- 0.62376 1 0 ack 40 ------- 1 3.0 0.0 27 63
r 0.625211 1 2 tcp 1000 ------- 1 0.0 3.0 32 56
+ 0.625211 2 3 tcp 1000 ------- 1 0.0 3.0 32 56
- 0.625211 2 3 tcp 1000 ------- 1 0.0 3.0 32 56
r 0.625497 0 1 tcp 1000 ------- 1 0.0 3.0 34 60
+ 0.625497 1 2 tcp 1000 ------- 1 0.0 3.0 34 60
- 0.625497 1 2 tcp 1000 ------- 1 0.0 3.0 34 60
r 0.62608 1 0 ack 40 ------- 1 3.0 0.0 26 61
+ 0.62608 0 1 tcp 1000 ------- 1 0.0 3.0 38 68
r 0.627211 2 3 tcp 1000 ------- 1 0.0 3.0 30 50
+ 0.627211 3 2 ack 40 ------- 1 3.0 0.0 30 69
- 0.627211 3 2 ack 40 ------- 1 3.0 0.0 30 69
r 0.629531 3 2 ack 40 ------- 1 3.0 0.0 29 67
+ 0.629531 2 1 ack 40 ------- 1 3.0 0.0 29 67
- 0.629531 2 1 ack 40 ------- 1 3.0 0.0 29 67
- 0.631497 0 1 tcp 1000 ------- 1 0.0 3.0 37 66
r 0.63176 2 1 ack 40 ------- 1 3.0 0.0 28 65
+ 0.63176 1 0 ack 40 ------- 1 3.0 0.0 28 65
- 0.63176 1 0 ack 40 ------- 1 3.0 0.0 28 65
r 0.633211 1 2 tcp 1000 ------- 1 0.0 3.0 33 58
+ 0.633211 2 3 tcp 1000 ------- 1 0.0 3.0 33 58
- 0.633211 2 3 tcp 1000 ------- 1 0.0 3.0 33 58
r 0.633497 0 1 tcp 1000 ------- 1 0.0 3.0 35 62
+ 0.633497 1 2 tcp 1000 ------- 1 0.0 3.0 35 62
- 0.633497 1 2 tcp 1000 ------- 1 0.0 3.0 35 62
r 0.63408 1 0 ack 40 ------- 1 3.0 0.0 27 63
+ 0.63408 0 1 tcp 1000 ------- 1 0.0 3.0 39 70
r 0.635211 2 3 tcp 1000 ------- 1 0.0 3.0 31 51
+ 0.635211 3 2 ack 40 ------- 1 3.0 0.0 31 71
- 0.635211 3 2 ack 40 ------- 1 3.0 0.0 31 71
r 0.637531 3 2 ack 40 ------- 1 3.0 0.0 30 69
+ 0.637531 2 1 ack 40 ------- 1 3.0 0.0 30 69
- 0.637531 2 1 ack 40 ------- 1 3.0 0.0 30 69
- 0.639497 0 1 tcp 1000 ------- 1 0.0 3.0 38 68
r 0.63976 2 1 ack 40 ------- 1 3.0 0.0 29 67
+ 0.63976 1 0 ack 40 ------- 1 3.0 0.0 29 67
- 0.63976 1 0 ack 40 ------- 1 3.0 0.0 29 67
r 0.641211 1 2 tcp 1000 ------- 1 0.0 3.0 34 60
+ 0.641211 2 3 tcp 1000 ------- 1 0.0 3.0 34 60
- 0.641211 2 3 tcp 1000 ------- 1 0.0 3.0 34 60
r 0.641497 0 1 tcp 1000 ------- 1 0.0 3.0 36 64
+ 0.641497 1 2 tcp 1000 ------- 1 0.0 3.0 36 64
- 0.641497 1 2 tcp 1000 ------- 1 0.0 3.0 36 64
r 0.64208 1 0 ack 40 ------- 1 3.0 0.0 28 65
+ 0.64208 0 1 tcp 1000 ------- 1 0.0 3.0 40 72
r 0.643211 2 3 tcp 1000 ------- 1 0.0 3.0 32 56
+ 0.643211 3 2 ack 40 ------- 1 3.0 0.0 32 73
- 0.643211 3 2 ack 40 ------- 1 3.0 0.0 32 73
r 0.645531 3 2 ack 40 ------- 1 3.0 0.0 31 71
+ 0.645531 2 1 ack 40 ------- 1 3.0 0.0 31 71
- 0.645531 2 1 ack 40 ------- 1 3.0 0.0 31 71
- 0.647497 0 1 tcp 1000 ------- 1 0.0 3.0 39 70
r 0.64776 2 1 ack 40 ------- 1 3.0 0.0 30 69
+ 0.64776 1 0 ack 40 ------- 1 3.0 0.0 30 69
- 0.64776 1 0 ack 40 ------- 1 3.0 0.0 30 69
r 0.649211 1 2 tcp 1000 ------- 1 0.0 3.0 35 62
+ 0.649211 2 3 tcp 1000 ------- 1 0.0 3.0 35 62
- 0.649211 2 3 tcp 1000 ------- 1 0.0 3.0 35 62
r 0.649497 0 1 tcp 1000 ------- 1 0.0 3.0 37 66
+ 0.649497 1 2 tcp 1000 ------- 1 0.0 3.0 37 66
- 0.649497 1 2 tcp 1000 ------- 1 0.0 3.0 37 66
r 0.65008 1 0 ack 40 ------- 1 3.0 0.0 29 67
+ 0.65008 0 1 tcp 1000 ------- 1 0.0 3.0 41 74
r 0.651211 2 3 tcp 1000 ------- 1 0.0 3.0 33 58
+ 0.651211 3 2 ack 40 ------- 1 3.0 0.0 33 75
- 0.651211 3 2 ack 40 ------- 1 3.0 0.0 33 75
r 0.653531 3 2 ack 40 ------- 1 3.0 0.0 32 73
+ 0.653531 2 1 ack 40 ------- 1 3.0 0.0 32 73
- 0.653531 2 1 ack 40 ------- 1 3.0 0.0 32 73
- 0.655497 0 1 tcp 1000 ------- 1 0.0 3.0 40 72
r 0.65576 2 1 ack 40 ------- 1 3.0 0.0 31 71
+ 0.65576 1 0 ack 40 ------- 1 3.0 0.0 31 71
- 0.65576 1 0 ack 40 ------- 1 3.0 0.0 31 71
r 0.657211 1 2 tcp 1000 ------- 1 0.0 3.0 36 64
+ 0.657211 2 3 tcp 1000 ------- 1 0.0 3.0 36 64
- 0.657211 2 3 tcp 1000 ------- 1 0.0 3.0 36 64
r 0.657497 0 1 tcp 1000 ------- 1 0.0 3.0 38 68
+ 0.657497 1 2 tcp 1000 ------- 1 0.0 3.0 38 68
- 0.657497 1 2 tcp 1000 ------- 1 0.0 3.0 38 68
r 0.65808 1 0 ack 40 ------- 1 3.0 0.0 30 69
+ 0.65808 0 1 tcp 1000 ------- 1 0.0 3.0 42 76
r 0.659211 2 3 tcp 1000 ------- 1 0.0 3.0 34 60
+ 0.659211 3 2 ack 40 ------- 1 3.0 0.0 34 77
- 0.659211 3 2 ack 40 ------- 1 3.0 0.0 34 77
r 0.661531 3 2 ack 40 ------- 1 3.0 0.0 33 75
+ 0.661531 2 1 ack 40 ------- 1 3.0 0.0 33 75